+ 0 1 2 tcp 40 ------- 1 1.0 4.0 0 0
- 0 1 2 tcp 40 ------- 1 1.0 4.0 0 0
r 0.010032 1 2 tcp 40 ------- 1 1.0 4.0 0 0
+ 0.010032 2 3 tcp 40 ------- 1 1.0 4.0 0 0
- 0.010032 2 3 tcp 40 ------- 1 1.0 4.0 0 0
r 0.020245 2 3 tcp 40 ------- 1 1.0 4.0 0 0
+ 0.020245 3 4 tcp 40 ------- 1 1.0 4.0 0 0
- 0.020245 3 4 tcp 40 ------- 1 1.0 4.0 0 0
r 0.030277 3 4 tcp 40 ------- 1 1.0 4.0 0 0
+ 0.030277 4 3 ack 40 ------- 1 4.0 1.0 0 1
- 0.030277 4 3 ack 40 ------- 1 4.0 1.0 0 1
r 0.040309 4 3 ack 40 ------- 1 4.0 1.0 0 1
+ 0.040309 3 2 ack 40 ------- 1 4.0 1.0 0 1
- 0.040309 3 2 ack 40 ------- 1 4.0 1.0 0 1
r 0.050523 3 2 ack 40 ------- 1 4.0 1.0 0 1
+ 0.050523 2 1 ack 40 ------- 1 4.0 1.0 0 1
- 0.050523 2 1 ack 40 ------- 1 4.0 1.0 0 1
r 0.060555 2 1 ack 40 ------- 1 4.0 1.0 0 1
+ 0.060555 1 2 tcp 1000 ------- 1 1.0 4.0 1 2
- 0.060555 1 2 tcp 1000 ------- 1 1.0 4.0 1 2
+ 0.060555 1 2 tcp 1000 ------- 1 1.0 4.0 2 3
- 0.061355 1 2 tcp 1000 ------- 1 1.0 4.0 2 3
r 0.071355 1 2 tcp 1000 ------- 1 1.0 4.0 1 2
+ 0.071355 2 3 tcp 1000 ------- 1 1.0 4.0 1 2
- 0.071355 2 3 tcp 1000 ------- 1 1.0 4.0 1 2
r 0.072155 1 2 tcp 1000 ------- 1 1.0 4.0 2 3
+ 0.072155 2 3 tcp 1000 ------- 1 1.0 4.0 2 3
- 0.076688 2 3 tcp 1000 ------- 1 1.0 4.0 2 3
r 0.086688 2 3 tcp 1000 ------- 1 1.0 4.0 1 2
+ 0.086688 3 4 tcp 1000 ------- 1 1.0 4.0 1 2
- 0.086688 3 4 tcp 1000 ------- 1 1.0 4.0 1 2
r 0.092021 2 3 tcp 1000 ------- 1 1.0 4.0 2 3
+ 0.092021 3 4 tcp 1000 ------- 1 1.0 4.0 2 3
- 0.092021 3 4 tcp 1000 ------- 1 1.0 4.0 2 3
r 0.097488 3 4 tcp 1000 ------- 1 1.0 4.0 1 2
+ 0.097488 4 3 ack 40 ------- 1 4.0 1.0 1 4
- 0.097488 4 3 ack 40 ------- 1 4.0 1.0 1 4
r 0.102821 3 4 tcp 1000 ------- 1 1.0 4.0 2 3
+ 0.102821 4 3 ack 40 ------- 1 4.0 1.0 2 5
- 0.102821 4 3 ack 40 ------- 1 4.0 1.0 2 5
r 0.10752 4 3 ack 40 ------- 1 4.0 1.0 1 4
+ 0.10752 3 2 ack 40 ------- 1 4.0 1.0 1 4
- 0.10752 3 2 ack 40 ------- 1 4.0 1.0 1 4
r 0.112853 4 3 ack 40 ------- 1 4.0 1.0 2 5
+ 0.112853 3 2 ack 40 ------- 1 4.0 1.0 2 5
- 0.112853 3 2 ack 40 ------- 1 4.0 1.0 2 5
r 0.117733 3 2 ack 40 ------- 1 4.0 1.0 1 4
+ 0.117733 2 1 ack 40 ------- 1 4.0 1.0 1 4
- 0.117733 2 1 ack 40 ------- 1 4.0 1.0 1 4
r 0.123067 3 2 ack 40 ------- 1 4.0 1.0 2 5
+ 0.123067 2 1 ack 40 ------- 1 4.0 1.0 2 5
- 0.123067 2 1 ack 40 ------- 1 4.0 1.0 2 5
r 0.127765 2 1 ack 40 ------- 1 4.0 1.0 1 4
+ 0.127765 1 2 tcp 1000 ------- 1 1.0 4.0 3 6
- 0.127765 1 2 tcp 1000 ------- 1 1.0 4.0 3 6
+ 0.127765 1 2 tcp 1000 ------- 1 1.0 4.0 4 7
- 0.128565 1 2 tcp 1000 ------- 1 1.0 4.0 4 7
r 0.133099 2 1 ack 40 ------- 1 4.0 1.0 2 5
+ 0.133099 1 2 tcp 1000 ------- 1 1.0 4.0 5 8
- 0.133099 1 2 tcp 1000 ------- 1 1.0 4.0 5 8
+ 0.133099 1 2 tcp 1000 ------- 1 1.0 4.0 6 9
- 0.133899 1 2 tcp 1000 ------- 1 1.0 4.0 6 9
r 0.138565 1 2 tcp 1000 ------- 1 1.0 4.0 3 6
+ 0.138565 2 3 tcp 1000 ------- 1 1.0 4.0 3 6
- 0.138565 2 3 tcp 1000 ------- 1 1.0 4.0 3 6
r 0.139365 1 2 tcp 1000 ------- 1 1.0 4.0 4 7
+ 0.139365 2 3 tcp 1000 ------- 1 1.0 4.0 4 7
r 0.143899 1 2 tcp 1000 ------- 1 1.0 4.0 5 8
+ 0.143899 2 3 tcp 1000 ------- 1 1.0 4.0 5 8
- 0.143899 2 3 tcp 1000 ------- 1 1.0 4.0 4 7
r 0.144699 1 2 tcp 1000 ------- 1 1.0 4.0 6 9
+ 0.144699 2 3 tcp 1000 ------- 1 1.0 4.0 6 9
- 0.149232 2 3 tcp 1000 ------- 1 1.0 4.0 5 8
r 0.153899 2 3 tcp 1000 ------- 1 1.0 4.0 3 6
+ 0.153899 3 4 tcp 1000 ------- 1 1.0 4.0 3 6
- 0.153899 3 4 tcp 1000 ------- 1 1.0 4.0 3 6
- 0.154565 2 3 tcp 1000 ------- 1 1.0 4.0 6 9
r 0.159232 2 3 tcp 1000 ------- 1 1.0 4.0 4 7
+ 0.159232 3 4 tcp 1000 ------- 1 1.0 4.0 4 7
- 0.159232 3 4 tcp 1000 ------- 1 1.0 4.0 4 7
r 0.164565 2 3 tcp 1000 ------- 1 1.0 4.0 5 8
+ 0.164565 3 4 tcp 1000 ------- 1 1.0 4.0 5 8
- 0.164565 3 4 tcp 1000 ------- 1 1.0 4.0 5 8
r 0.164699 3 4 tcp 1000 ------- 1 1.0 4.0 3 6
+ 0.164699 4 3 ack 40 ------- 1 4.0 1.0 3 10
- 0.164699 4 3 ack 40 ------- 1 4.0 1.0 3 10
r 0.169899 2 3 tcp 1000 ------- 1 1.0 4.0 6 9
+ 0.169899 3 4 tcp 1000 ------- 1 1.0 4.0 6 9
- 0.169899 3 4 tcp 1000 ------- 1 1.0 4.0 6 9
r 0.170032 3 4 tcp 1000 ------- 1 1.0 4.0 4 7
+ 0.170032 4 3 ack 40 ------- 1 4.0 1.0 4 11
- 0.170032 4 3 ack 40 ------- 1 4.0 1.0 4 11
r 0.174731 4 3 ack 40 ------- 1 4.0 1.0 3 10
+ 0.174731 3 2 ack 40 ------- 1 4.0 1.0 3 10
- 0.174731 3 2 ack 40 ------- 1 4.0 1.0 3 10
r 0.175365 3 4 tcp 1000 ------- 1 1.0 4.0 5 8
+ 0.175365 4 3 ack 40 ------- 1 4.0 1.0 5 12
- 0.175365 4 3 ack 40 ------- 1 4.0 1.0 5 12
r 0.180064 4 3 ack 40 ------- 1 4.0 1.0 4 11
+ 0.180064 3 2 ack 40 ------- 1 4.0 1.0 4 11
- 0.180064 3 2 ack 40 ------- 1 4.0 1.0 4 11
r 0.180699 3 4 tcp 1000 ------- 1 1.0 4.0 6 9
+ 0.180699 4 3 ack 40 ------- 1 4.0 1.0 6 13
- 0.180699 4 3 ack 40 ------- 1 4.0 1.0 6 13
r 0.184944 3 2 ack 40 ------- 1 4.0 1.0 3 10
+ 0.184944 2 1 ack 40 ------- 1 4.0 1.0 3 10
- 0.184944 2 1 ack 40 ------- 1 4.0 1.0 3 10
r 0.185397 4 3 ack 40 ------- 1 4.0 1.0 5 12
+ 0.185397 3 2 ack 40 ------- 1 4.0 1.0 5 12
- 0.185397 3 2 ack 40 ------- 1 4.0 1.0 5 12
r 0.190277 3 2 ack 40 ------- 1 4.0 1.0 4 11
+ 0.190277 2 1 ack 40 ------- 1 4.0 1.0 4 11
- 0.190277 2 1 ack 40 ------- 1 4.0 1.0 4 11
r 0.190731 4 3 ack 40 ------- 1 4.0 1.0 6 13
+ 0.190731 3 2 ack 40 ------- 1 4.0 1.0 6 13
- 0.190731 3 2 ack 40 ------- 1 4.0 1.0 6 13
r 0.194976 2 1 ack 40 ------- 1 4.0 1.0 3 10
+ 0.194976 1 2 tcp 1000 ------- 1 1.0 4.0 7 14
- 0.194976 1 2 tcp 1000 ------- 1 1.0 4.0 7 14
+ 0.194976 1 2 tcp 1000 ------- 1 1.0 4.0 8 15
r 0.195611 3 2 ack 40 ------- 1 4.0 1.0 5 12
+ 0.195611 2 1 ack 40 ------- 1 4.0 1.0 5 12
- 0.195611 2 1 ack 40 ------- 1 4.0 1.0 5 12
- 0.195776 1 2 tcp 1000 ------- 1 1.0 4.0 8 15
r 0.200309 2 1 ack 40 ------- 1 4.0 1.0 4 11
+ 0.200309 1 2 tcp 1000 ------- 1 1.0 4.0 9 16
- 0.200309 1 2 tcp 1000 ------- 1 1.0 4.0 9 16
+ 0.200309 1 2 tcp 1000 ------- 1 1.0 4.0 10 17
r 0.200944 3 2 ack 40 ------- 1 4.0 1.0 6 13
+ 0.200944 2 1 ack 40 ------- 1 4.0 1.0 6 13
- 0.200944 2 1 ack 40 ------- 1 4.0 1.0 6 13
- 0.201109 1 2 tcp 1000 ------- 1 1.0 4.0 10 17
r 0.205643 2 1 ack 40 ------- 1 4.0 1.0 5 12
+ 0.205643 1 2 tcp 1000 ------- 1 1.0 4.0 11 18
- 0.205643 1 2 tcp 1000 ------- 1 1.0 4.0 11 18
+ 0.205643 1 2 tcp 1000 ------- 1 1.0 4.0 12 19
r 0.205776 1 2 tcp 1000 ------- 1 1.0 4.0 7 14
+ 0.205776 2 3 tcp 1000 ------- 1 1.0 4.0 7 14
- 0.205776 2 3 tcp 1000 ------- 1 1.0 4.0 7 14
- 0.206443 1 2 tcp 1000 ------- 1 1.0 4.0 12 19
r 0.206576 1 2 tcp 1000 ------- 1 1.0 4.0 8 15
+ 0.206576 2 3 tcp 1000 ------- 1 1.0 4.0 8 15
r 0.210976 2 1 ack 40 ------- 1 4.0 1.0 6 13
+ 0.210976 1 2 tcp 1000 ------- 1 1.0 4.0 13 20
- 0.210976 1 2 tcp 1000 ------- 1 1.0 4.0 13 20
+ 0.210976 1 2 tcp 1000 ------- 1 1.0 4.0 14 21
r 0.211109 1 2 tcp 1000 ------- 1 1.0 4.0 9 16
+ 0.211109 2 3 tcp 1000 ------- 1 1.0 4.0 9 16
- 0.211109 2 3 tcp 1000 ------- 1 1.0 4.0 8 15
- 0.211776 1 2 tcp 1000 ------- 1 1.0 4.0 14 21
r 0.211909 1 2 tcp 1000 ------- 1 1.0 4.0 10 17
+ 0.211909 2 3 tcp 1000 ------- 1 1.0 4.0 10 17
r 0.216443 1 2 tcp 1000 ------- 1 1.0 4.0 11 18
+ 0.216443 2 3 tcp 1000 ------- 1 1.0 4.0 11 18
- 0.216443 2 3 tcp 1000 ------- 1 1.0 4.0 9 16
r 0.217243 1 2 tcp 1000 ------- 1 1.0 4.0 12 19
+ 0.217243 2 3 tcp 1000 ------- 1 1.0 4.0 12 19
r 0.221109 2 3 tcp 1000 ------- 1 1.0 4.0 7 14
+ 0.221109 3 4 tcp 1000 ------- 1 1.0 4.0 7 14
- 0.221109 3 4 tcp 1000 ------- 1 1.0 4.0 7 14
r 0.221776 1 2 tcp 1000 ------- 1 1.0 4.0 13 20
+ 0.221776 2 3 tcp 1000 ------- 1 1.0 4.0 13 20
- 0.221776 2 3 tcp 1000 ------- 1 1.0 4.0 10 17
r 0.222576 1 2 tcp 1000 ------- 1 1.0 4.0 14 21
+ 0.222576 2 3 tcp 1000 ------- 1 1.0 4.0 14 21
r 0.226443 2 3 tcp 1000 ------- 1 1.0 4.0 8 15
+ 0.226443 3 4 tcp 1000 ------- 1 1.0 4.0 8 15
- 0.226443 3 4 tcp 1000 ------- 1 1.0 4.0 8 15
- 0.227109 2 3 tcp 1000 ------- 1 1.0 4.0 11 18
r 0.231776 2 3 tcp 1000 ------- 1 1.0 4.0 9 16
+ 0.231776 3 4 tcp 1000 ------- 1 1.0 4.0 9 16
- 0.231776 3 4 tcp 1000 ------- 1 1.0 4.0 9 16
r 0.231909 3 4 tcp 1000 ------- 1 1.0 4.0 7 14
+ 0.231909 4 3 ack 40 ------- 1 4.0 1.0 7 22
- 0.231909 4 3 ack 40 ------- 1 4.0 1.0 7 22
- 0.232443 2 3 tcp 1000 ------- 1 1.0 4.0 12 19
r 0.237109 2 3 tcp 1000 ------- 1 1.0 4.0 10 17
+ 0.237109 3 4 tcp 1000 ------- 1 1.0 4.0 10 17
- 0.237109 3 4 tcp 1000 ------- 1 1.0 4.0 10 17
r 0.237243 3 4 tcp 1000 ------- 1 1.0 4.0 8 15
+ 0.237243 4 3 ack 40 ------- 1 4.0 1.0 8 23
- 0.237243 4 3 ack 40 ------- 1 4.0 1.0 8 23
- 0.237776 2 3 tcp 1000 ------- 1 1.0 4.0 13 20
r 0.241941 4 3 ack 40 ------- 1 4.0 1.0 7 22
+ 0.241941 3 2 ack 40 ------- 1 4.0 1.0 7 22
- 0.241941 3 2 ack 40 ------- 1 4.0 1.0 7 22
r 0.242443 2 3 tcp 1000 ------- 1 1.0 4.0 11 18
+ 0.242443 3 4 tcp 1000 ------- 1 1.0 4.0 11 18
- 0.242443 3 4 tcp 1000 ------- 1 1.0 4.0 11 18
r 0.242576 3 4 tcp 1000 ------- 1 1.0 4.0 9 16
+ 0.242576 4 3 ack 40 ------- 1 4.0 1.0 9 24
- 0.242576 4 3 ack 40 ------- 1 4.0 1.0 9 24
- 0.243109 2 3 tcp 1000 ------- 1 1.0 4.0 14 21
r 0.247275 4 3 ack 40 ------- 1 4.0 1.0 8 23
+ 0.247275 3 2 ack 40 ------- 1 4.0 1.0 8 23
- 0.247275 3 2 ack 40 ------- 1 4.0 1.0 8 23
r 0.247776 2 3 tcp 1000 ------- 1 1.0 4.0 12 19
+ 0.247776 3 4 tcp 1000 ------- 1 1.0 4.0 12 19
- 0.247776 3 4 tcp 1000 ------- 1 1.0 4.0 12 19
r 0.247909 3 4 tcp 1000 ------- 1 1.0 4.0 10 17
+ 0.247909 4 3 ack 40 ------- 1 4.0 1.0 10 25
- 0.247909 4 3 ack 40 ------- 1 4.0 1.0 10 25
r 0.252155 3 2 ack 40 ------- 1 4.0 1.0 7 22
+ 0.252155 2 1 ack 40 ------- 1 4.0 1.0 7 22
- 0.252155 2 1 ack 40 ------- 1 4.0 1.0 7 22
r 0.252608 4 3 ack 40 ------- 1 4.0 1.0 9 24
+ 0.252608 3 2 ack 40 ------- 1 4.0 1.0 9 24
- 0.252608 3 2 ack 40 ------- 1 4.0 1.0 9 24
r 0.253109 2 3 tcp 1000 ------- 1 1.0 4.0 13 20
+ 0.253109 3 4 tcp 1000 ------- 1 1.0 4.0 13 20
- 0.253109 3 4 tcp 1000 ------- 1 1.0 4.0 13 20
r 0.253243 3 4 tcp 1000 ------- 1 1.0 4.0 11 18
+ 0.253243 4 3 ack 40 ------- 1 4.0 1.0 11 26
- 0.253243 4 3 ack 40 ------- 1 4.0 1.0 11 26
r 0.257488 3 2 ack 40 ------- 1 4.0 1.0 8 23
+ 0.257488 2 1 ack 40 ------- 1 4.0 1.0 8 23
- 0.257488 2 1 ack 40 ------- 1 4.0 1.0 8 23
r 0.257941 4 3 ack 40 ------- 1 4.0 1.0 10 25
+ 0.257941 3 2 ack 40 ------- 1 4.0 1.0 10 25
- 0.257941 3 2 ack 40 ------- 1 4.0 1.0 10 25
r 0.258443 2 3 tcp 1000 ------- 1 1.0 4.0 14 21
+ 0.258443 3 4 tcp 1000 ------- 1 1.0 4.0 14 21
- 0.258443 3 4 tcp 1000 ------- 1 1.0 4.0 14 21
r 0.258576 3 4 tcp 1000 ------- 1 1.0 4.0 12 19
+ 0.258576 4 3 ack 40 ------- 1 4.0 1.0 12 27
- 0.258576 4 3 ack 40 ------- 1 4.0 1.0 12 27
r 0.262187 2 1 ack 40 ------- 1 4.0 1.0 7 22
+ 0.262187 1 2 tcp 1000 ------- 1 1.0 4.0 15 28
- 0.262187 1 2 tcp 1000 ------- 1 1.0 4.0 15 28
+ 0.262187 1 2 tcp 1000 ------- 1 1.0 4.0 16 29
r 0.262821 3 2 ack 40 ------- 1 4.0 1.0 9 24
+ 0.262821 2 1 ack 40 ------- 1 4.0 1.0 9 24
- 0.262821 2 1 ack 40 ------- 1 4.0 1.0 9 24
- 0.262987 1 2 tcp 1000 ------- 1 1.0 4.0 16 29
r 0.263275 4 3 ack 40 ------- 1 4.0 1.0 11 26
+ 0.263275 3 2 ack 40 ------- 1 4.0 1.0 11 26
- 0.263275 3 2 ack 40 ------- 1 4.0 1.0 11 26
r 0.263909 3 4 tcp 1000 ------- 1 1.0 4.0 13 20
+ 0.263909 4 3 ack 40 ------- 1 4.0 1.0 13 30
- 0.263909 4 3 ack 40 ------- 1 4.0 1.0 13 30
r 0.26752 2 1 ack 40 ------- 1 4.0 1.0 8 23
+ 0.26752 1 2 tcp 1000 ------- 1 1.0 4.0 17 31
- 0.26752 1 2 tcp 1000 ------- 1 1.0 4.0 17 31
+ 0.26752 1 2 tcp 1000 ------- 1 1.0 4.0 18 32
r 0.268155 3 2 ack 40 ------- 1 4.0 1.0 10 25
+ 0.268155 2 1 ack 40 ------- 1 4.0 1.0 10 25
- 0.268155 2 1 ack 40 ------- 1 4.0 1.0 10 25
- 0.26832 1 2 tcp 1000 ------- 1 1.0 4.0 18 32
r 0.268608 4 3 ack 40 ------- 1 4.0 1.0 12 27
+ 0.268608 3 2 ack 40 ------- 1 4.0 1.0 12 27
- 0.268608 3 2 ack 40 ------- 1 4.0 1.0 12 27
r 0.269243 3 4 tcp 1000 ------- 1 1.0 4.0 14 21
+ 0.269243 4 3 ack 40 ------- 1 4.0 1.0 14 33
- 0.269243 4 3 ack 40 ------- 1 4.0 1.0 14 33
r 0.272853 2 1 ack 40 ------- 1 4.0 1.0 9 24
+ 0.272853 1 2 tcp 1000 ------- 1 1.0 4.0 19 34
- 0.272853 1 2 tcp 1000 ------- 1 1.0 4.0 19 34
+ 0.272853 1 2 tcp 1000 ------- 1 1.0 4.0 20 35
r 0.272987 1 2 tcp 1000 ------- 1 1.0 4.0 15 28
+ 0.272987 2 3 tcp 1000 ------- 1 1.0 4.0 15 28
- 0.272987 2 3 tcp 1000 ------- 1 1.0 4.0 15 28
r 0.273488 3 2 ack 40 ------- 1 4.0 1.0 11 26
+ 0.273488 2 1 ack 40 ------- 1 4.0 1.0 11 26
- 0.273488 2 1 ack 40 ------- 1 4.0 1.0 11 26
- 0.273653 1 2 tcp 1000 ------- 1 1.0 4.0 20 35
r 0.273787 1 2 tcp 1000 ------- 1 1.0 4.0 16 29
+ 0.273787 2 3 tcp 1000 ------- 1 1.0 4.0 16 29
r 0.273941 4 3 ack 40 ------- 1 4.0 1.0 13 30
+ 0.273941 3 2 ack 40 ------- 1 4.0 1.0 13 30
- 0.273941 3 2 ack 40 ------- 1 4.0 1.0 13 30
r 0.278187 2 1 ack 40 ------- 1 4.0 1.0 10 25
+ 0.278187 1 2 tcp 1000 ------- 1 1.0 4.0 21 36
- 0.278187 1 2 tcp 1000 ------- 1 1.0 4.0 21 36
+ 0.278187 1 2 tcp 1000 ------- 1 1.0 4.0 22 37
r 0.27832 1 2 tcp 1000 ------- 1 1.0 4.0 17 31
+ 0.27832 2 3 tcp 1000 ------- 1 1.0 4.0 17 31
- 0.27832 2 3 tcp 1000 ------- 1 1.0 4.0 16 29
r 0.278821 3 2 ack 40 ------- 1 4.0 1.0 12 27
+ 0.278821 2 1 ack 40 ------- 1 4.0 1.0 12 27
- 0.278821 2 1 ack 40 ------- 1 4.0 1.0 12 27
- 0.278987 1 2 tcp 1000 ------- 1 1.0 4.0 22 37
r 0.27912 1 2 tcp 1000 ------- 1 1.0 4.0 18 32
+ 0.27912 2 3 tcp 1000 ------- 1 1.0 4.0 18 32
r 0.279275 4 3 ack 40 ------- 1 4.0 1.0 14 33
+ 0.279275 3 2 ack 40 ------- 1 4.0 1.0 14 33
- 0.279275 3 2 ack 40 ------- 1 4.0 1.0 14 33
r 0.28352 2 1 ack 40 ------- 1 4.0 1.0 11 26
+ 0.28352 1 2 tcp 1000 ------- 1 1.0 4.0 23 38
- 0.28352 1 2 tcp 1000 ------- 1 1.0 4.0 23 38
+ 0.28352 1 2 tcp 1000 ------- 1 1.0 4.0 24 39
r 0.283653 1 2 tcp 1000 ------- 1 1.0 4.0 19 34
+ 0.283653 2 3 tcp 1000 ------- 1 1.0 4.0 19 34
- 0.283653 2 3 tcp 1000 ------- 1 1.0 4.0 17 31
r 0.284155 3 2 ack 40 ------- 1 4.0 1.0 13 30
+ 0.284155 2 1 ack 40 ------- 1 4.0 1.0 13 30
- 0.284155 2 1 ack 40 ------- 1 4.0 1.0 13 30
- 0.28432 1 2 tcp 1000 ------- 1 1.0 4.0 24 39
r 0.284453 1 2 tcp 1000 ------- 1 1.0 4.0 20 35
+ 0.284453 2 3 tcp 1000 ------- 1 1.0 4.0 20 35
r 0.28832 2 3 tcp 1000 ------- 1 1.0 4.0 15 28
+ 0.28832 3 4 tcp 1000 ------- 1 1.0 4.0 15 28
- 0.28832 3 4 tcp 1000 ------- 1 1.0 4.0 15 28
r 0.288853 2 1 ack 40 ------- 1 4.0 1.0 12 27
+ 0.288853 1 2 tcp 1000 ------- 1 1.0 4.0 25 40
- 0.288853 1 2 tcp 1000 ------- 1 1.0 4.0 25 40
+ 0.288853 1 2 tcp 1000 ------- 1 1.0 4.0 26 41
r 0.288987 1 2 tcp 1000 ------- 1 1.0 4.0 21 36
+ 0.288987 2 3 tcp 1000 ------- 1 1.0 4.0 21 36
- 0.288987 2 3 tcp 1000 ------- 1 1.0 4.0 18 32
r 0.289488 3 2 ack 40 ------- 1 4.0 1.0 14 33
+ 0.289488 2 1 ack 40 ------- 1 4.0 1.0 14 33
- 0.289488 2 1 ack 40 ------- 1 4.0 1.0 14 33
- 0.289653 1 2 tcp 1000 ------- 1 1.0 4.0 26 41
r 0.289787 1 2 tcp 1000 ------- 1 1.0 4.0 22 37
+ 0.289787 2 3 tcp 1000 ------- 1 1.0 4.0 22 37
r 0.293653 2 3 tcp 1000 ------- 1 1.0 4.0 16 29
+ 0.293653 3 4 tcp 1000 ------- 1 1.0 4.0 16 29
- 0.293653 3 4 tcp 1000 ------- 1 1.0 4.0 16 29
r 0.294187 2 1 ack 40 ------- 1 4.0 1.0 13 30
+ 0.294187 1 2 tcp 1000 ------- 1 1.0 4.0 27 42
- 0.294187 1 2 tcp 1000 ------- 1 1.0 4.0 27 42
+ 0.294187 1 2 tcp 1000 ------- 1 1.0 4.0 28 43
r 0.29432 1 2 tcp 1000 ------- 1 1.0 4.0 23 38
+ 0.29432 2 3 tcp 1000 ------- 1 1.0 4.0 23 38
- 0.29432 2 3 tcp 1000 ------- 1 1.0 4.0 19 34
- 0.294987 1 2 tcp 1000 ------- 1 1.0 4.0 28 43
r 0.29512 1 2 tcp 1000 ------- 1 1.0 4.0 24 39
+ 0.29512 2 3 tcp 1000 ------- 1 1.0 4.0 24 39
r 0.298987 2 3 tcp 1000 ------- 1 1.0 4.0 17 31
+ 0.298987 3 4 tcp 1000 ------- 1 1.0 4.0 17 31
- 0.298987 3 4 tcp 1000 ------- 1 1.0 4.0 17 31
r 0.29912 3 4 tcp 1000 ------- 1 1.0 4.0 15 28
+ 0.29912 4 3 ack 40 ------- 1 4.0 1.0 15 44
- 0.29912 4 3 ack 40 ------- 1 4.0 1.0 15 44
r 0.29952 2 1 ack 40 ------- 1 4.0 1.0 14 33
+ 0.29952 1 2 tcp 1000 ------- 1 1.0 4.0 29 45
- 0.29952 1 2 tcp 1000 ------- 1 1.0 4.0 29 45
+ 0.29952 1 2 tcp 1000 ------- 1 1.0 4.0 30 46
r 0.299653 1 2 tcp 1000 ------- 1 1.0 4.0 25 40
+ 0.299653 2 3 tcp 1000 ------- 1 1.0 4.0 25 40
- 0.299653 2 3 tcp 1000 ------- 1 1.0 4.0 20 35
- 0.30032 1 2 tcp 1000 ------- 1 1.0 4.0 30 46
r 0.300453 1 2 tcp 1000 ------- 1 1.0 4.0 26 41
+ 0.300453 2 3 tcp 1000 ------- 1 1.0 4.0 26 41
r 0.30432 2 3 tcp 1000 ------- 1 1.0 4.0 18 32
+ 0.30432 3 4 tcp 1000 ------- 1 1.0 4.0 18 32
- 0.30432 3 4 tcp 1000 ------- 1 1.0 4.0 18 32
r 0.304453 3 4 tcp 1000 ------- 1 1.0 4.0 16 29
+ 0.304453 4 3 ack 40 ------- 1 4.0 1.0 16 47
- 0.304453 4 3 ack 40 ------- 1 4.0 1.0 16 47
r 0.304987 1 2 tcp 1000 ------- 1 1.0 4.0 27 42
+ 0.304987 2 3 tcp 1000 ------- 1 1.0 4.0 27 42
- 0.304987 2 3 tcp 1000 ------- 1 1.0 4.0 21 36
r 0.305787 1 2 tcp 1000 ------- 1 1.0 4.0 28 43
+ 0.305787 2 3 tcp 1000 ------- 1 1.0 4.0 28 43
r 0.309152 4 3 ack 40 ------- 1 4.0 1.0 15 44
+ 0.309152 3 2 ack 40 ------- 1 4.0 1.0 15 44
- 0.309152 3 2 ack 40 ------- 1 4.0 1.0 15 44
r 0.309653 2 3 tcp 1000 ------- 1 1.0 4.0 19 34
+ 0.309653 3 4 tcp 1000 ------- 1 1.0 4.0 19 34
- 0.309653 3 4 tcp 1000 ------- 1 1.0 4.0 19 34
r 0.309787 3 4 tcp 1000 ------- 1 1.0 4.0 17 31
+ 0.309787 4 3 ack 40 ------- 1 4.0 1.0 17 48
- 0.309787 4 3 ack 40 ------- 1 4.0 1.0 17 48
r 0.31032 1 2 tcp 1000 ------- 1 1.0 4.0 29 45
+ 0.31032 2 3 tcp 1000 ------- 1 1.0 4.0 29 45
- 0.31032 2 3 tcp 1000 ------- 1 1.0 4.0 22 37
r 0.31112 1 2 tcp 1000 ------- 1 1.0 4.0 30 46
+ 0.31112 2 3 tcp 1000 ------- 1 1.0 4.0 30 46
r 0.314485 4 3 ack 40 ------- 1 4.0 1.0 16 47
+ 0.314485 3 2 ack 40 ------- 1 4.0 1.0 16 47
- 0.314485 3 2 ack 40 ------- 1 4.0 1.0 16 47
r 0.314987 2 3 tcp 1000 ------- 1 1.0 4.0 20 35
+ 0.314987 3 4 tcp 1000 ------- 1 1.0 4.0 20 35
- 0.314987 3 4 tcp 1000 ------- 1 1.0 4.0 20 35
r 0.31512 3 4 tcp 1000 ------- 1 1.0 4.0 18 32
+ 0.31512 4 3 ack 40 ------- 1 4.0 1.0 18 49
- 0.31512 4 3 ack 40 ------- 1 4.0 1.0 18 49
- 0.315653 2 3 tcp 1000 ------- 1 1.0 4.0 23 38
r 0.319365 3 2 ack 40 ------- 1 4.0 1.0 15 44
+ 0.319365 2 1 ack 40 ------- 1 4.0 1.0 15 44
- 0.319365 2 1 ack 40 ------- 1 4.0 1.0 15 44
r 0.319819 4 3 ack 40 ------- 1 4.0 1.0 17 48
+ 0.319819 3 2 ack 40 ------- 1 4.0 1.0 17 48
- 0.319819 3 2 ack 40 ------- 1 4.0 1.0 17 48
r 0.32032 2 3 tcp 1000 ------- 1 1.0 4.0 21 36
+ 0.32032 3 4 tcp 1000 ------- 1 1.0 4.0 21 36
- 0.32032 3 4 tcp 1000 ------- 1 1.0 4.0 21 36
r 0.320453 3 4 tcp 1000 ------- 1 1.0 4.0 19 34
+ 0.320453 4 3 ack 40 ------- 1 4.0 1.0 19 50
- 0.320453 4 3 ack 40 ------- 1 4.0 1.0 19 50
- 0.320987 2 3 tcp 1000 ------- 1 1.0 4.0 24 39
r 0.324699 3 2 ack 40 ------- 1 4.0 1.0 16 47
+ 0.324699 2 1 ack 40 ------- 1 4.0 1.0 16 47
- 0.324699 2 1 ack 40 ------- 1 4.0 1.0 16 47
r 0.325152 4 3 ack 40 ------- 1 4.0 1.0 18 49
+ 0.325152 3 2 ack 40 ------- 1 4.0 1.0 18 49
- 0.325152 3 2 ack 40 ------- 1 4.0 1.0 18 49
r 0.325653 2 3 tcp 1000 ------- 1 1.0 4.0 22 37
+ 0.325653 3 4 tcp 1000 ------- 1 1.0 4.0 22 37
- 0.325653 3 4 tcp 1000 ------- 1 1.0 4.0 22 37
r 0.325787 3 4 tcp 1000 ------- 1 1.0 4.0 20 35
+ 0.325787 4 3 ack 40 ------- 1 4.0 1.0 20 51
- 0.325787 4 3 ack 40 ------- 1 4.0 1.0 20 51
- 0.32632 2 3 tcp 1000 ------- 1 1.0 4.0 25 40
r 0.329397 2 1 ack 40 ------- 1 4.0 1.0 15 44
+ 0.329397 1 2 tcp 1000 ------- 1 1.0 4.0 31 52
- 0.329397 1 2 tcp 1000 ------- 1 1.0 4.0 31 52
+ 0.329397 1 2 tcp 1000 ------- 1 1.0 4.0 32 53
r 0.330032 3 2 ack 40 ------- 1 4.0 1.0 17 48
+ 0.330032 2 1 ack 40 ------- 1 4.0 1.0 17 48
- 0.330032 2 1 ack 40 ------- 1 4.0 1.0 17 48
- 0.330197 1 2 tcp 1000 ------- 1 1.0 4.0 32 53
r 0.330485 4 3 ack 40 ------- 1 4.0 1.0 19 50
+ 0.330485 3 2 ack 40 ------- 1 4.0 1.0 19 50
- 0.330485 3 2 ack 40 ------- 1 4.0 1.0 19 50
r 0.330987 2 3 tcp 1000 ------- 1 1.0 4.0 23 38
+ 0.330987 3 4 tcp 1000 ------- 1 1.0 4.0 23 38
- 0.330987 3 4 tcp 1000 ------- 1 1.0 4.0 23 38
r 0.33112 3 4 tcp 1000 ------- 1 1.0 4.0 21 36
+ 0.33112 4 3 ack 40 ------- 1 4.0 1.0 21 54
- 0.33112 4 3 ack 40 ------- 1 4.0 1.0 21 54
- 0.331653 2 3 tcp 1000 ------- 1 1.0 4.0 26 41
r 0.334731 2 1 ack 40 ------- 1 4.0 1.0 16 47
+ 0.334731 1 2 tcp 1000 ------- 1 1.0 4.0 33 55
- 0.334731 1 2 tcp 1000 ------- 1 1.0 4.0 33 55
+ 0.334731 1 2 tcp 1000 ------- 1 1.0 4.0 34 56
r 0.335365 3 2 ack 40 ------- 1 4.0 1.0 18 49
+ 0.335365 2 1 ack 40 ------- 1 4.0 1.0 18 49
- 0.335365 2 1 ack 40 ------- 1 4.0 1.0 18 49
- 0.335531 1 2 tcp 1000 ------- 1 1.0 4.0 34 56
r 0.335819 4 3 ack 40 ------- 1 4.0 1.0 20 51
+ 0.335819 3 2 ack 40 ------- 1 4.0 1.0 20 51
- 0.335819 3 2 ack 40 ------- 1 4.0 1.0 20 51
r 0.33632 2 3 tcp 1000 ------- 1 1.0 4.0 24 39
+ 0.33632 3 4 tcp 1000 ------- 1 1.0 4.0 24 39
- 0.33632 3 4 tcp 1000 ------- 1 1.0 4.0 24 39
r 0.336453 3 4 tcp 1000 ------- 1 1.0 4.0 22 37
+ 0.336453 4 3 ack 40 ------- 1 4.0 1.0 22 57
- 0.336453 4 3 ack 40 ------- 1 4.0 1.0 22 57
- 0.336987 2 3 tcp 1000 ------- 1 1.0 4.0 27 42
r 0.340064 2 1 ack 40 ------- 1 4.0 1.0 17 48
+ 0.340064 1 2 tcp 1000 ------- 1 1.0 4.0 35 58
- 0.340064 1 2 tcp 1000 ------- 1 1.0 4.0 35 58
+ 0.340064 1 2 tcp 1000 ------- 1 1.0 4.0 36 59
r 0.340197 1 2 tcp 1000 ------- 1 1.0 4.0 31 52
+ 0.340197 2 3 tcp 1000 ------- 1 1.0 4.0 31 52
r 0.340699 3 2 ack 40 ------- 1 4.0 1.0 19 50
+ 0.340699 2 1 ack 40 ------- 1 4.0 1.0 19 50
- 0.340699 2 1 ack 40 ------- 1 4.0 1.0 19 50
- 0.340864 1 2 tcp 1000 ------- 1 1.0 4.0 36 59
r 0.340997 1 2 tcp 1000 ------- 1 1.0 4.0 32 53
+ 0.340997 2 3 tcp 1000 ------- 1 1.0 4.0 32 53
r 0.341152 4 3 ack 40 ------- 1 4.0 1.0 21 54
+ 0.341152 3 2 ack 40 ------- 1 4.0 1.0 21 54
- 0.341152 3 2 ack 40 ------- 1 4.0 1.0 21 54
r 0.341653 2 3 tcp 1000 ------- 1 1.0 4.0 25 40
+ 0.341653 3 4 tcp 1000 ------- 1 1.0 4.0 25 40
- 0.341653 3 4 tcp 1000 ------- 1 1.0 4.0 25 40
r 0.341787 3 4 tcp 1000 ------- 1 1.0 4.0 23 38
+ 0.341787 4 3 ack 40 ------- 1 4.0 1.0 23 60
- 0.341787 4 3 ack 40 ------- 1 4.0 1.0 23 60
- 0.34232 2 3 tcp 1000 ------- 1 1.0 4.0 28 43
r 0.345397 2 1 ack 40 ------- 1 4.0 1.0 18 49
+ 0.345397 1 2 tcp 1000 ------- 1 1.0 4.0 37 61
- 0.345397 1 2 tcp 1000 ------- 1 1.0 4.0 37 61
+ 0.345397 1 2 tcp 1000 ------- 1 1.0 4.0 38 62
r 0.345531 1 2 tcp 1000 ------- 1 1.0 4.0 33 55
+ 0.345531 2 3 tcp 1000 ------- 1 1.0 4.0 33 55
r 0.346032 3 2 ack 40 ------- 1 4.0 1.0 20 51
+ 0.346032 2 1 ack 40 ------- 1 4.0 1.0 20 51
- 0.346032 2 1 ack 40 ------- 1 4.0 1.0 20 51
- 0.346197 1 2 tcp 1000 ------- 1 1.0 4.0 38 62
r 0.346331 1 2 tcp 1000 ------- 1 1.0 4.0 34 56
+ 0.346331 2 3 tcp 1000 ------- 1 1.0 4.0 34 56
r 0.346485 4 3 ack 40 ------- 1 4.0 1.0 22 57
+ 0.346485 3 2 ack 40 ------- 1 4.0 1.0 22 57
- 0.346485 3 2 ack 40 ------- 1 4.0 1.0 22 57
r 0.346987 2 3 tcp 1000 ------- 1 1.0 4.0 26 41
+ 0.346987 3 4 tcp 1000 ------- 1 1.0 4.0 26 41
- 0.346987 3 4 tcp 1000 ------- 1 1.0 4.0 26 41
r 0.34712 3 4 tcp 1000 ------- 1 1.0 4.0 24 39
+ 0.34712 4 3 ack 40 ------- 1 4.0 1.0 24 63
- 0.34712 4 3 ack 40 ------- 1 4.0 1.0 24 63
- 0.347653 2 3 tcp 1000 ------- 1 1.0 4.0 29 45
r 0.350731 2 1 ack 40 ------- 1 4.0 1.0 19 50
+ 0.350731 1 2 tcp 1000 ------- 1 1.0 4.0 39 64
- 0.350731 1 2 tcp 1000 ------- 1 1.0 4.0 39 64
r 0.350864 1 2 tcp 1000 ------- 1 1.0 4.0 35 58
+ 0.350864 2 3 tcp 1000 ------- 1 1.0 4.0 35 58
r 0.351365 3 2 ack 40 ------- 1 4.0 1.0 21 54
+ 0.351365 2 1 ack 40 ------- 1 4.0 1.0 21 54
- 0.351365 2 1 ack 40 ------- 1 4.0 1.0 21 54
r 0.351664 1 2 tcp 1000 ------- 1 1.0 4.0 36 59
+ 0.351664 2 3 tcp 1000 ------- 1 1.0 4.0 36 59
r 0.351819 4 3 ack 40 ------- 1 4.0 1.0 23 60
+ 0.351819 3 2 ack 40 ------- 1 4.0 1.0 23 60
- 0.351819 3 2 ack 40 ------- 1 4.0 1.0 23 60
r 0.35232 2 3 tcp 1000 ------- 1 1.0 4.0 27 42
+ 0.35232 3 4 tcp 1000 ------- 1 1.0 4.0 27 42
- 0.35232 3 4 tcp 1000 ------- 1 1.0 4.0 27 42
r 0.352453 3 4 tcp 1000 ------- 1 1.0 4.0 25 40
+ 0.352453 4 3 ack 40 ------- 1 4.0 1.0 25 65
- 0.352453 4 3 ack 40 ------- 1 4.0 1.0 25 65
- 0.352987 2 3 tcp 1000 ------- 1 1.0 4.0 30 46
r 0.356064 2 1 ack 40 ------- 1 4.0 1.0 20 51
+ 0.356064 1 2 tcp 1000 ------- 1 1.0 4.0 40 66
- 0.356064 1 2 tcp 1000 ------- 1 1.0 4.0 40 66
r 0.356197 1 2 tcp 1000 ------- 1 1.0 4.0 37 61
+ 0.356197 2 3 tcp 1000 ------- 1 1.0 4.0 37 61
r 0.356699 3 2 ack 40 ------- 1 4.0 1.0 22 57
+ 0.356699 2 1 ack 40 ------- 1 4.0 1.0 22 57
- 0.356699 2 1 ack 40 ------- 1 4.0 1.0 22 57
r 0.356997 1 2 tcp 1000 ------- 1 1.0 4.0 38 62
+ 0.356997 2 3 tcp 1000 ------- 1 1.0 4.0 38 62
r 0.357152 4 3 ack 40 ------- 1 4.0 1.0 24 63
+ 0.357152 3 2 ack 40 ------- 1 4.0 1.0 24 63
- 0.357152 3 2 ack 40 ------- 1 4.0 1.0 24 63
r 0.357653 2 3 tcp 1000 ------- 1 1.0 4.0 28 43
+ 0.357653 3 4 tcp 1000 ------- 1 1.0 4.0 28 43
- 0.357653 3 4 tcp 1000 ------- 1 1.0 4.0 28 43
r 0.357787 3 4 tcp 1000 ------- 1 1.0 4.0 26 41
+ 0.357787 4 3 ack 40 ------- 1 4.0 1.0 26 67
- 0.357787 4 3 ack 40 ------- 1 4.0 1.0 26 67
- 0.35832 2 3 tcp 1000 ------- 1 1.0 4.0 31 52
r 0.361397 2 1 ack 40 ------- 1 4.0 1.0 21 54
+ 0.361397 1 2 tcp 1000 ------- 1 1.0 4.0 41 68
- 0.361397 1 2 tcp 1000 ------- 1 1.0 4.0 41 68
r 0.361531 1 2 tcp 1000 ------- 1 1.0 4.0 39 64
+ 0.361531 2 3 tcp 1000 ------- 1 1.0 4.0 39 64
r 0.362032 3 2 ack 40 ------- 1 4.0 1.0 23 60
+ 0.362032 2 1 ack 40 ------- 1 4.0 1.0 23 60
- 0.362032 2 1 ack 40 ------- 1 4.0 1.0 23 60
r 0.362485 4 3 ack 40 ------- 1 4.0 1.0 25 65
+ 0.362485 3 2 ack 40 ------- 1 4.0 1.0 25 65
- 0.362485 3 2 ack 40 ------- 1 4.0 1.0 25 65
r 0.362987 2 3 tcp 1000 ------- 1 1.0 4.0 29 45
+ 0.362987 3 4 tcp 1000 ------- 1 1.0 4.0 29 45
- 0.362987 3 4 tcp 1000 ------- 1 1.0 4.0 29 45
r 0.36312 3 4 tcp 1000 ------- 1 1.0 4.0 27 42
+ 0.36312 4 3 ack 40 ------- 1 4.0 1.0 27 69
- 0.36312 4 3 ack 40 ------- 1 4.0 1.0 27 69
- 0.363653 2 3 tcp 1000 ------- 1 1.0 4.0 32 53
r 0.366731 2 1 ack 40 ------- 1 4.0 1.0 22 57
+ 0.366731 1 2 tcp 1000 ------- 1 1.0 4.0 42 70
- 0.366731 1 2 tcp 1000 ------- 1 1.0 4.0 42 70
r 0.366864 1 2 tcp 1000 ------- 1 1.0 4.0 40 66
+ 0.366864 2 3 tcp 1000 ------- 1 1.0 4.0 40 66
r 0.367365 3 2 ack 40 ------- 1 4.0 1.0 24 63
+ 0.367365 2 1 ack 40 ------- 1 4.0 1.0 24 63
- 0.367365 2 1 ack 40 ------- 1 4.0 1.0 24 63
r 0.367819 4 3 ack 40 ------- 1 4.0 1.0 26 67
+ 0.367819 3 2 ack 40 ------- 1 4.0 1.0 26 67
- 0.367819 3 2 ack 40 ------- 1 4.0 1.0 26 67
r 0.36832 2 3 tcp 1000 ------- 1 1.0 4.0 30 46
+ 0.36832 3 4 tcp 1000 ------- 1 1.0 4.0 30 46
- 0.36832 3 4 tcp 1000 ------- 1 1.0 4.0 30 46
r 0.368453 3 4 tcp 1000 ------- 1 1.0 4.0 28 43
+ 0.368453 4 3 ack 40 ------- 1 4.0 1.0 28 71
- 0.368453 4 3 ack 40 ------- 1 4.0 1.0 28 71
- 0.368987 2 3 tcp 1000 ------- 1 1.0 4.0 33 55
r 0.372064 2 1 ack 40 ------- 1 4.0 1.0 23 60
+ 0.372064 1 2 tcp 1000 ------- 1 1.0 4.0 43 72
- 0.372064 1 2 tcp 1000 ------- 1 1.0 4.0 43 72
r 0.372197 1 2 tcp 1000 ------- 1 1.0 4.0 41 68
+ 0.372197 2 3 tcp 1000 ------- 1 1.0 4.0 41 68
r 0.372699 3 2 ack 40 ------- 1 4.0 1.0 25 65
+ 0.372699 2 1 ack 40 ------- 1 4.0 1.0 25 65
- 0.372699 2 1 ack 40 ------- 1 4.0 1.0 25 65
r 0.373152 4 3 ack 40 ------- 1 4.0 1.0 27 69
+ 0.373152 3 2 ack 40 ------- 1 4.0 1.0 27 69
- 0.373152 3 2 ack 40 ------- 1 4.0 1.0 27 69
r 0.373653 2 3 tcp 1000 ------- 1 1.0 4.0 31 52
+ 0.373653 3 4 tcp 1000 ------- 1 1.0 4.0 31 52
- 0.373653 3 4 tcp 1000 ------- 1 1.0 4.0 31 52
r 0.373787 3 4 tcp 1000 ------- 1 1.0 4.0 29 45
+ 0.373787 4 3 ack 40 ------- 1 4.0 1.0 29 73
- 0.373787 4 3 ack 40 ------- 1 4.0 1.0 29 73
- 0.37432 2 3 tcp 1000 ------- 1 1.0 4.0 34 56
r 0.377397 2 1 ack 40 ------- 1 4.0 1.0 24 63
+ 0.377397 1 2 tcp 1000 ------- 1 1.0 4.0 44 74
- 0.377397 1 2 tcp 1000 ------- 1 1.0 4.0 44 74
r 0.377531 1 2 tcp 1000 ------- 1 1.0 4.0 42 70
+ 0.377531 2 3 tcp 1000 ------- 1 1.0 4.0 42 70
r 0.378032 3 2 ack 40 ------- 1 4.0 1.0 26 67
+ 0.378032 2 1 ack 40 ------- 1 4.0 1.0 26 67
- 0.378032 2 1 ack 40 ------- 1 4.0 1.0 26 67
r 0.378485 4 3 ack 40 ------- 1 4.0 1.0 28 71
+ 0.378485 3 2 ack 40 ------- 1 4.0 1.0 28 71
- 0.378485 3 2 ack 40 ------- 1 4.0 1.0 28 71
r 0.378987 2 3 tcp 1000 ------- 1 1.0 4.0 32 53
+ 0.378987 3 4 tcp 1000 ------- 1 1.0 4.0 32 53
- 0.378987 3 4 tcp 1000 ------- 1 1.0 4.0 32 53
r 0.37912 3 4 tcp 1000 ------- 1 1.0 4.0 30 46
+ 0.37912 4 3 ack 40 ------- 1 4.0 1.0 30 75
- 0.37912 4 3 ack 40 ------- 1 4.0 1.0 30 75
- 0.379653 2 3 tcp 1000 ------- 1 1.0 4.0 35 58
r 0.382731 2 1 ack 40 ------- 1 4.0 1.0 25 65
+ 0.382731 1 2 tcp 1000 ------- 1 1.0 4.0 45 76
- 0.382731 1 2 tcp 1000 ------- 1 1.0 4.0 45 76
r 0.382864 1 2 tcp 1000 ------- 1 1.0 4.0 43 72
+ 0.382864 2 3 tcp 1000 ------- 1 1.0 4.0 43 72
r 0.383365 3 2 ack 40 ------- 1 4.0 1.0 27 69
+ 0.383365 2 1 ack 40 ------- 1 4.0 1.0 27 69
- 0.383365 2 1 ack 40 ------- 1 4.0 1.0 27 69
r 0.383819 4 3 ack 40 ------- 1 4.0 1.0 29 73
+ 0.383819 3 2 ack 40 ------- 1 4.0 1.0 29 73
- 0.383819 3 2 ack 40 ------- 1 4.0 1.0 29 73
r 0.38432 2 3 tcp 1000 ------- 1 1.0 4.0 33 55
+ 0.38432 3 4 tcp 1000 ------- 1 1.0 4.0 33 55
- 0.38432 3 4 tcp 1000 ------- 1 1.0 4.0 33 55
r 0.384453 3 4 tcp 1000 ------- 1 1.0 4.0 31 52
+ 0.384453 4 3 ack 40 ------- 1 4.0 1.0 31 77
- 0.384453 4 3 ack 40 ------- 1 4.0 1.0 31 77
- 0.384987 2 3 tcp 1000 ------- 1 1.0 4.0 36 59
r 0.388064 2 1 ack 40 ------- 1 4.0 1.0 26 67
+ 0.388064 1 2 tcp 1000 ------- 1 1.0 4.0 46 78
- 0.388064 1 2 tcp 1000 ------- 1 1.0 4.0 46 78
r 0.388197 1 2 tcp 1000 ------- 1 1.0 4.0 44 74
+ 0.388197 2 3 tcp 1000 ------- 1 1.0 4.0 44 74
r 0.388699 3 2 ack 40 ------- 1 4.0 1.0 28 71
+ 0.388699 2 1 ack 40 ------- 1 4.0 1.0 28 71
- 0.388699 2 1 ack 40 ------- 1 4.0 1.0 28 71
r 0.389152 4 3 ack 40 ------- 1 4.0 1.0 30 75
+ 0.389152 3 2 ack 40 ------- 1 4.0 1.0 30 75
- 0.389152 3 2 ack 40 ------- 1 4.0 1.0 30 75
r 0.389653 2 3 tcp 1000 ------- 1 1.0 4.0 34 56
+ 0.389653 3 4 tcp 1000 ------- 1 1.0 4.0 34 56
- 0.389653 3 4 tcp 1000 ------- 1 1.0 4.0 34 56
r 0.389787 3 4 tcp 1000 ------- 1 1.0 4.0 32 53
+ 0.389787 4 3 ack 40 ------- 1 4.0 1.0 32 79
- 0.389787 4 3 ack 40 ------- 1 4.0 1.0 32 79
- 0.39032 2 3 tcp 1000 ------- 1 1.0 4.0 37 61
r 0.393397 2 1 ack 40 ------- 1 4.0 1.0 27 69
+ 0.393397 1 2 tcp 1000 ------- 1 1.0 4.0 47 80
- 0.393397 1 2 tcp 1000 ------- 1 1.0 4.0 47 80
r 0.393531 1 2 tcp 1000 ------- 1 1.0 4.0 45 76
+ 0.393531 2 3 tcp 1000 ------- 1 1.0 4.0 45 76
r 0.394032 3 2 ack 40 ------- 1 4.0 1.0 29 73
+ 0.394032 2 1 ack 40 ------- 1 4.0 1.0 29 73
- 0.394032 2 1 ack 40 ------- 1 4.0 1.0 29 73
r 0.394485 4 3 ack 40 ------- 1 4.0 1.0 31 77
+ 0.394485 3 2 ack 40 ------- 1 4.0 1.0 31 77
- 0.394485 3 2 ack 40 ------- 1 4.0 1.0 31 77