+ 0 1 2 cbr 1000 ------- 1 1.0 4.0 0 0
- 0 1 2 cbr 1000 ------- 1 1.0 4.0 0 0
+ 0.008 1 2 cbr 1000 ------- 1 1.0 4.0 1 1
- 0.008 1 2 cbr 1000 ------- 1 1.0 4.0 1 1
r 0.0108 1 2 cbr 1000 ------- 1 1.0 4.0 0 0
+ 0.0108 2 3 cbr 1000 ------- 1 1.0 4.0 0 0
- 0.0108 2 3 cbr 1000 ------- 1 1.0 4.0 0 0
+ 0.016 1 2 cbr 1000 ------- 1 1.0 4.0 2 2
- 0.016 1 2 cbr 1000 ------- 1 1.0 4.0 2 2
r 0.0188 1 2 cbr 1000 ------- 1 1.0 4.0 1 1
+ 0.0188 2 3 cbr 1000 ------- 1 1.0 4.0 1 1
- 0.0188 2 3 cbr 1000 ------- 1 1.0 4.0 1 1
+ 0.024 1 2 cbr 1000 ------- 1 1.0 4.0 3 3
- 0.024 1 2 cbr 1000 ------- 1 1.0 4.0 3 3
r 0.026133 2 3 cbr 1000 ------- 1 1.0 4.0 0 0
+ 0.026133 3 4 cbr 1000 ------- 1 1.0 4.0 0 0
- 0.026133 3 4 cbr 1000 ------- 1 1.0 4.0 0 0
r 0.0268 1 2 cbr 1000 ------- 1 1.0 4.0 2 2
+ 0.0268 2 3 cbr 1000 ------- 1 1.0 4.0 2 2
- 0.0268 2 3 cbr 1000 ------- 1 1.0 4.0 2 2
+ 0.032 1 2 cbr 1000 ------- 1 1.0 4.0 4 4
- 0.032 1 2 cbr 1000 ------- 1 1.0 4.0 4 4
r 0.034133 2 3 cbr 1000 ------- 1 1.0 4.0 1 1
+ 0.034133 3 4 cbr 1000 ------- 1 1.0 4.0 1 1
- 0.034133 3 4 cbr 1000 ------- 1 1.0 4.0 1 1
r 0.0348 1 2 cbr 1000 ------- 1 1.0 4.0 3 3
+ 0.0348 2 3 cbr 1000 ------- 1 1.0 4.0 3 3
- 0.0348 2 3 cbr 1000 ------- 1 1.0 4.0 3 3
r 0.036933 3 4 cbr 1000 ------- 1 1.0 4.0 0 0
+ 0.04 1 2 cbr 1000 ------- 1 1.0 4.0 5 5
- 0.04 1 2 cbr 1000 ------- 1 1.0 4.0 5 5
r 0.042133 2 3 cbr 1000 ------- 1 1.0 4.0 2 2
+ 0.042133 3 4 cbr 1000 ------- 1 1.0 4.0 2 2
- 0.042133 3 4 cbr 1000 ------- 1 1.0 4.0 2 2
r 0.0428 1 2 cbr 1000 ------- 1 1.0 4.0 4 4
+ 0.0428 2 3 cbr 1000 ------- 1 1.0 4.0 4 4
- 0.0428 2 3 cbr 1000 ------- 1 1.0 4.0 4 4
r 0.044933 3 4 cbr 1000 ------- 1 1.0 4.0 1 1
+ 0.048 1 2 cbr 1000 ------- 1 1.0 4.0 6 6
- 0.048 1 2 cbr 1000 ------- 1 1.0 4.0 6 6
r 0.050133 2 3 cbr 1000 ------- 1 1.0 4.0 3 3
+ 0.050133 3 4 cbr 1000 ------- 1 1.0 4.0 3 3
- 0.050133 3 4 cbr 1000 ------- 1 1.0 4.0 3 3
r 0.0508 1 2 cbr 1000 ------- 1 1.0 4.0 5 5
+ 0.0508 2 3 cbr 1000 ------- 1 1.0 4.0 5 5
- 0.0508 2 3 cbr 1000 ------- 1 1.0 4.0 5 5
r 0.052933 3 4 cbr 1000 ------- 1 1.0 4.0 2 2
+ 0.056 1 2 cbr 1000 ------- 1 1.0 4.0 7 7
- 0.056 1 2 cbr 1000 ------- 1 1.0 4.0 7 7
r 0.058133 2 3 cbr 1000 ------- 1 1.0 4.0 4 4
+ 0.058133 3 4 cbr 1000 ------- 1 1.0 4.0 4 4
- 0.058133 3 4 cbr 1000 ------- 1 1.0 4.0 4 4
r 0.0588 1 2 cbr 1000 ------- 1 1.0 4.0 6 6
+ 0.0588 2 3 cbr 1000 ------- 1 1.0 4.0 6 6
- 0.0588 2 3 cbr 1000 ------- 1 1.0 4.0 6 6
r 0.060933 3 4 cbr 1000 ------- 1 1.0 4.0 3 3
+ 0.064 1 2 cbr 1000 ------- 1 1.0 4.0 8 8
- 0.064 1 2 cbr 1000 ------- 1 1.0 4.0 8 8
r 0.066133 2 3 cbr 1000 ------- 1 1.0 4.0 5 5
+ 0.066133 3 4 cbr 1000 ------- 1 1.0 4.0 5 5
- 0.066133 3 4 cbr 1000 ------- 1 1.0 4.0 5 5
r 0.0668 1 2 cbr 1000 ------- 1 1.0 4.0 7 7
+ 0.0668 2 3 cbr 1000 ------- 1 1.0 4.0 7 7
- 0.0668 2 3 cbr 1000 ------- 1 1.0 4.0 7 7
r 0.068933 3 4 cbr 1000 ------- 1 1.0 4.0 4 4
+ 0.072 1 2 cbr 1000 ------- 1 1.0 4.0 9 9
- 0.072 1 2 cbr 1000 ------- 1 1.0 4.0 9 9
r 0.074133 2 3 cbr 1000 ------- 1 1.0 4.0 6 6
+ 0.074133 3 4 cbr 1000 ------- 1 1.0 4.0 6 6
- 0.074133 3 4 cbr 1000 ------- 1 1.0 4.0 6 6
r 0.0748 1 2 cbr 1000 ------- 1 1.0 4.0 8 8
+ 0.0748 2 3 cbr 1000 ------- 1 1.0 4.0 8 8
- 0.0748 2 3 cbr 1000 ------- 1 1.0 4.0 8 8
r 0.076933 3 4 cbr 1000 ------- 1 1.0 4.0 5 5
+ 0.08 1 2 cbr 1000 ------- 1 1.0 4.0 10 10
- 0.08 1 2 cbr 1000 ------- 1 1.0 4.0 10 10
r 0.082133 2 3 cbr 1000 ------- 1 1.0 4.0 7 7
+ 0.082133 3 4 cbr 1000 ------- 1 1.0 4.0 7 7
- 0.082133 3 4 cbr 1000 ------- 1 1.0 4.0 7 7
r 0.0828 1 2 cbr 1000 ------- 1 1.0 4.0 9 9
+ 0.0828 2 3 cbr 1000 ------- 1 1.0 4.0 9 9
- 0.0828 2 3 cbr 1000 ------- 1 1.0 4.0 9 9
r 0.084933 3 4 cbr 1000 ------- 1 1.0 4.0 6 6
+ 0.088 1 2 cbr 1000 ------- 1 1.0 4.0 11 11
- 0.088 1 2 cbr 1000 ------- 1 1.0 4.0 11 11
r 0.090133 2 3 cbr 1000 ------- 1 1.0 4.0 8 8
+ 0.090133 3 4 cbr 1000 ------- 1 1.0 4.0 8 8
- 0.090133 3 4 cbr 1000 ------- 1 1.0 4.0 8 8
r 0.0908 1 2 cbr 1000 ------- 1 1.0 4.0 10 10
+ 0.0908 2 3 cbr 1000 ------- 1 1.0 4.0 10 10
- 0.0908 2 3 cbr 1000 ------- 1 1.0 4.0 10 10
r 0.092933 3 4 cbr 1000 ------- 1 1.0 4.0 7 7
+ 0.096 1 2 cbr 1000 ------- 1 1.0 4.0 12 12
- 0.096 1 2 cbr 1000 ------- 1 1.0 4.0 12 12
r 0.098133 2 3 cbr 1000 ------- 1 1.0 4.0 9 9
+ 0.098133 3 4 cbr 1000 ------- 1 1.0 4.0 9 9
- 0.098133 3 4 cbr 1000 ------- 1 1.0 4.0 9 9
r 0.0988 1 2 cbr 1000 ------- 1 1.0 4.0 11 11
+ 0.0988 2 3 cbr 1000 ------- 1 1.0 4.0 11 11
- 0.0988 2 3 cbr 1000 ------- 1 1.0 4.0 11 11
+ 0.1 7 2 cbr 1000 ------- 2 7.0 8.0 0 13
- 0.1 7 2 cbr 1000 ------- 2 7.0 8.0 0 13
r 0.100933 3 4 cbr 1000 ------- 1 1.0 4.0 8 8
+ 0.104 1 2 cbr 1000 ------- 1 1.0 4.0 13 14
- 0.104 1 2 cbr 1000 ------- 1 1.0 4.0 13 14
r 0.106133 2 3 cbr 1000 ------- 1 1.0 4.0 10 10
+ 0.106133 3 4 cbr 1000 ------- 1 1.0 4.0 10 10
- 0.106133 3 4 cbr 1000 ------- 1 1.0 4.0 10 10
r 0.1068 1 2 cbr 1000 ------- 1 1.0 4.0 12 12
+ 0.1068 2 3 cbr 1000 ------- 1 1.0 4.0 12 12
- 0.1068 2 3 cbr 1000 ------- 1 1.0 4.0 12 12
+ 0.108 7 2 cbr 1000 ------- 2 7.0 8.0 1 15
- 0.108 7 2 cbr 1000 ------- 2 7.0 8.0 1 15
r 0.108933 3 4 cbr 1000 ------- 1 1.0 4.0 9 9
r 0.1108 7 2 cbr 1000 ------- 2 7.0 8.0 0 13
+ 0.1108 2 3 cbr 1000 ------- 2 7.0 8.0 0 13
+ 0.112 1 2 cbr 1000 ------- 1 1.0 4.0 14 16
- 0.112 1 2 cbr 1000 ------- 1 1.0 4.0 14 16
- 0.112133 2 3 cbr 1000 ------- 2 7.0 8.0 0 13
r 0.114133 2 3 cbr 1000 ------- 1 1.0 4.0 11 11
+ 0.114133 3 4 cbr 1000 ------- 1 1.0 4.0 11 11
- 0.114133 3 4 cbr 1000 ------- 1 1.0 4.0 11 11
r 0.1148 1 2 cbr 1000 ------- 1 1.0 4.0 13 14
+ 0.1148 2 3 cbr 1000 ------- 1 1.0 4.0 13 14
+ 0.116 7 2 cbr 1000 ------- 2 7.0 8.0 2 17
- 0.116 7 2 cbr 1000 ------- 2 7.0 8.0 2 17
r 0.116933 3 4 cbr 1000 ------- 1 1.0 4.0 10 10
- 0.117467 2 3 cbr 1000 ------- 1 1.0 4.0 13 14
r 0.1188 7 2 cbr 1000 ------- 2 7.0 8.0 1 15
+ 0.1188 2 3 cbr 1000 ------- 2 7.0 8.0 1 15
+ 0.12 1 2 cbr 1000 ------- 1 1.0 4.0 15 18
- 0.12 1 2 cbr 1000 ------- 1 1.0 4.0 15 18
r 0.122133 2 3 cbr 1000 ------- 1 1.0 4.0 12 12
+ 0.122133 3 4 cbr 1000 ------- 1 1.0 4.0 12 12
- 0.122133 3 4 cbr 1000 ------- 1 1.0 4.0 12 12
- 0.1228 2 3 cbr 1000 ------- 2 7.0 8.0 1 15
r 0.1228 1 2 cbr 1000 ------- 1 1.0 4.0 14 16
+ 0.1228 2 3 cbr 1000 ------- 1 1.0 4.0 14 16
+ 0.124 7 2 cbr 1000 ------- 2 7.0 8.0 3 19
- 0.124 7 2 cbr 1000 ------- 2 7.0 8.0 3 19
r 0.124933 3 4 cbr 1000 ------- 1 1.0 4.0 11 11
r 0.1268 7 2 cbr 1000 ------- 2 7.0 8.0 2 17
+ 0.1268 2 3 cbr 1000 ------- 2 7.0 8.0 2 17
r 0.127467 2 3 cbr 1000 ------- 2 7.0 8.0 0 13
+ 0.127467 3 8 cbr 1000 ------- 2 7.0 8.0 0 13
- 0.127467 3 8 cbr 1000 ------- 2 7.0 8.0 0 13
+ 0.128 1 2 cbr 1000 ------- 1 1.0 4.0 16 20
- 0.128 1 2 cbr 1000 ------- 1 1.0 4.0 16 20
- 0.128133 2 3 cbr 1000 ------- 1 1.0 4.0 14 16
r 0.1308 1 2 cbr 1000 ------- 1 1.0 4.0 15 18
+ 0.1308 2 3 cbr 1000 ------- 1 1.0 4.0 15 18
+ 0.132 7 2 cbr 1000 ------- 2 7.0 8.0 4 21
- 0.132 7 2 cbr 1000 ------- 2 7.0 8.0 4 21
r 0.1328 2 3 cbr 1000 ------- 1 1.0 4.0 13 14
+ 0.1328 3 4 cbr 1000 ------- 1 1.0 4.0 13 14
- 0.1328 3 4 cbr 1000 ------- 1 1.0 4.0 13 14
r 0.132933 3 4 cbr 1000 ------- 1 1.0 4.0 12 12
- 0.133467 2 3 cbr 1000 ------- 2 7.0 8.0 2 17
r 0.1348 7 2 cbr 1000 ------- 2 7.0 8.0 3 19
+ 0.1348 2 3 cbr 1000 ------- 2 7.0 8.0 3 19
+ 0.136 1 2 cbr 1000 ------- 1 1.0 4.0 17 22
- 0.136 1 2 cbr 1000 ------- 1 1.0 4.0 17 22
r 0.138133 2 3 cbr 1000 ------- 2 7.0 8.0 1 15
+ 0.138133 3 8 cbr 1000 ------- 2 7.0 8.0 1 15
- 0.138133 3 8 cbr 1000 ------- 2 7.0 8.0 1 15
r 0.138267 3 8 cbr 1000 ------- 2 7.0 8.0 0 13
- 0.1388 2 3 cbr 1000 ------- 1 1.0 4.0 15 18
r 0.1388 1 2 cbr 1000 ------- 1 1.0 4.0 16 20
+ 0.1388 2 3 cbr 1000 ------- 1 1.0 4.0 16 20
+ 0.14 7 2 cbr 1000 ------- 2 7.0 8.0 5 23
- 0.14 7 2 cbr 1000 ------- 2 7.0 8.0 5 23
r 0.1428 7 2 cbr 1000 ------- 2 7.0 8.0 4 21
+ 0.1428 2 3 cbr 1000 ------- 2 7.0 8.0 4 21
r 0.143467 2 3 cbr 1000 ------- 1 1.0 4.0 14 16
+ 0.143467 3 4 cbr 1000 ------- 1 1.0 4.0 14 16
- 0.143467 3 4 cbr 1000 ------- 1 1.0 4.0 14 16
r 0.1436 3 4 cbr 1000 ------- 1 1.0 4.0 13 14
+ 0.144 1 2 cbr 1000 ------- 1 1.0 4.0 18 24
- 0.144 1 2 cbr 1000 ------- 1 1.0 4.0 18 24
- 0.144133 2 3 cbr 1000 ------- 2 7.0 8.0 3 19
r 0.1468 1 2 cbr 1000 ------- 1 1.0 4.0 17 22
+ 0.1468 2 3 cbr 1000 ------- 1 1.0 4.0 17 22
+ 0.148 7 2 cbr 1000 ------- 2 7.0 8.0 6 25
- 0.148 7 2 cbr 1000 ------- 2 7.0 8.0 6 25
r 0.1488 2 3 cbr 1000 ------- 2 7.0 8.0 2 17
+ 0.1488 3 8 cbr 1000 ------- 2 7.0 8.0 2 17
- 0.1488 3 8 cbr 1000 ------- 2 7.0 8.0 2 17
r 0.148933 3 8 cbr 1000 ------- 2 7.0 8.0 1 15
- 0.149467 2 3 cbr 1000 ------- 1 1.0 4.0 16 20
r 0.1508 7 2 cbr 1000 ------- 2 7.0 8.0 5 23
+ 0.1508 2 3 cbr 1000 ------- 2 7.0 8.0 5 23
+ 0.152 1 2 cbr 1000 ------- 1 1.0 4.0 19 26
- 0.152 1 2 cbr 1000 ------- 1 1.0 4.0 19 26
r 0.154133 2 3 cbr 1000 ------- 1 1.0 4.0 15 18
+ 0.154133 3 4 cbr 1000 ------- 1 1.0 4.0 15 18
- 0.154133 3 4 cbr 1000 ------- 1 1.0 4.0 15 18
r 0.154267 3 4 cbr 1000 ------- 1 1.0 4.0 14 16
- 0.1548 2 3 cbr 1000 ------- 2 7.0 8.0 4 21
r 0.1548 1 2 cbr 1000 ------- 1 1.0 4.0 18 24
+ 0.1548 2 3 cbr 1000 ------- 1 1.0 4.0 18 24
+ 0.156 7 2 cbr 1000 ------- 2 7.0 8.0 7 27
- 0.156 7 2 cbr 1000 ------- 2 7.0 8.0 7 27
r 0.1588 7 2 cbr 1000 ------- 2 7.0 8.0 6 25
+ 0.1588 2 3 cbr 1000 ------- 2 7.0 8.0 6 25
r 0.159467 2 3 cbr 1000 ------- 2 7.0 8.0 3 19
+ 0.159467 3 8 cbr 1000 ------- 2 7.0 8.0 3 19
- 0.159467 3 8 cbr 1000 ------- 2 7.0 8.0 3 19
r 0.1596 3 8 cbr 1000 ------- 2 7.0 8.0 2 17
+ 0.16 1 2 cbr 1000 ------- 1 1.0 4.0 20 28
- 0.16 1 2 cbr 1000 ------- 1 1.0 4.0 20 28
- 0.160133 2 3 cbr 1000 ------- 1 1.0 4.0 17 22
r 0.1628 1 2 cbr 1000 ------- 1 1.0 4.0 19 26
+ 0.1628 2 3 cbr 1000 ------- 1 1.0 4.0 19 26
+ 0.164 7 2 cbr 1000 ------- 2 7.0 8.0 8 29
- 0.164 7 2 cbr 1000 ------- 2 7.0 8.0 8 29
r 0.1648 2 3 cbr 1000 ------- 1 1.0 4.0 16 20
+ 0.1648 3 4 cbr 1000 ------- 1 1.0 4.0 16 20
- 0.1648 3 4 cbr 1000 ------- 1 1.0 4.0 16 20
r 0.164933 3 4 cbr 1000 ------- 1 1.0 4.0 15 18
- 0.165467 2 3 cbr 1000 ------- 2 7.0 8.0 5 23
r 0.1668 7 2 cbr 1000 ------- 2 7.0 8.0 7 27
+ 0.1668 2 3 cbr 1000 ------- 2 7.0 8.0 7 27
+ 0.168 1 2 cbr 1000 ------- 1 1.0 4.0 21 30
- 0.168 1 2 cbr 1000 ------- 1 1.0 4.0 21 30
r 0.170133 2 3 cbr 1000 ------- 2 7.0 8.0 4 21
+ 0.170133 3 8 cbr 1000 ------- 2 7.0 8.0 4 21
- 0.170133 3 8 cbr 1000 ------- 2 7.0 8.0 4 21
r 0.170267 3 8 cbr 1000 ------- 2 7.0 8.0 3 19
- 0.1708 2 3 cbr 1000 ------- 1 1.0 4.0 18 24
r 0.1708 1 2 cbr 1000 ------- 1 1.0 4.0 20 28
+ 0.1708 2 3 cbr 1000 ------- 1 1.0 4.0 20 28
+ 0.172 7 2 cbr 1000 ------- 2 7.0 8.0 9 31
- 0.172 7 2 cbr 1000 ------- 2 7.0 8.0 9 31
r 0.1748 7 2 cbr 1000 ------- 2 7.0 8.0 8 29
+ 0.1748 2 3 cbr 1000 ------- 2 7.0 8.0 8 29
r 0.175467 2 3 cbr 1000 ------- 1 1.0 4.0 17 22
+ 0.175467 3 4 cbr 1000 ------- 1 1.0 4.0 17 22
- 0.175467 3 4 cbr 1000 ------- 1 1.0 4.0 17 22
r 0.1756 3 4 cbr 1000 ------- 1 1.0 4.0 16 20
+ 0.176 1 2 cbr 1000 ------- 1 1.0 4.0 22 32
- 0.176 1 2 cbr 1000 ------- 1 1.0 4.0 22 32
- 0.176133 2 3 cbr 1000 ------- 2 7.0 8.0 6 25
r 0.1788 1 2 cbr 1000 ------- 1 1.0 4.0 21 30
+ 0.1788 2 3 cbr 1000 ------- 1 1.0 4.0 21 30
+ 0.18 7 2 cbr 1000 ------- 2 7.0 8.0 10 33
- 0.18 7 2 cbr 1000 ------- 2 7.0 8.0 10 33
r 0.1808 2 3 cbr 1000 ------- 2 7.0 8.0 5 23
+ 0.1808 3 8 cbr 1000 ------- 2 7.0 8.0 5 23
- 0.1808 3 8 cbr 1000 ------- 2 7.0 8.0 5 23
r 0.180933 3 8 cbr 1000 ------- 2 7.0 8.0 4 21
- 0.181467 2 3 cbr 1000 ------- 1 1.0 4.0 19 26
r 0.1828 7 2 cbr 1000 ------- 2 7.0 8.0 9 31
+ 0.1828 2 3 cbr 1000 ------- 2 7.0 8.0 9 31
+ 0.184 1 2 cbr 1000 ------- 1 1.0 4.0 23 34
- 0.184 1 2 cbr 1000 ------- 1 1.0 4.0 23 34
r 0.186133 2 3 cbr 1000 ------- 1 1.0 4.0 18 24
+ 0.186133 3 4 cbr 1000 ------- 1 1.0 4.0 18 24
- 0.186133 3 4 cbr 1000 ------- 1 1.0 4.0 18 24
r 0.186267 3 4 cbr 1000 ------- 1 1.0 4.0 17 22
- 0.1868 2 3 cbr 1000 ------- 2 7.0 8.0 7 27
r 0.1868 1 2 cbr 1000 ------- 1 1.0 4.0 22 32
+ 0.1868 2 3 cbr 1000 ------- 1 1.0 4.0 22 32
+ 0.188 7 2 cbr 1000 ------- 2 7.0 8.0 11 35
- 0.188 7 2 cbr 1000 ------- 2 7.0 8.0 11 35
r 0.1908 7 2 cbr 1000 ------- 2 7.0 8.0 10 33
+ 0.1908 2 3 cbr 1000 ------- 2 7.0 8.0 10 33
r 0.191467 2 3 cbr 1000 ------- 2 7.0 8.0 6 25
+ 0.191467 3 8 cbr 1000 ------- 2 7.0 8.0 6 25
- 0.191467 3 8 cbr 1000 ------- 2 7.0 8.0 6 25
r 0.1916 3 8 cbr 1000 ------- 2 7.0 8.0 5 23
+ 0.192 1 2 cbr 1000 ------- 1 1.0 4.0 24 36
- 0.192 1 2 cbr 1000 ------- 1 1.0 4.0 24 36
- 0.192133 2 3 cbr 1000 ------- 1 1.0 4.0 20 28
r 0.1948 1 2 cbr 1000 ------- 1 1.0 4.0 23 34
+ 0.1948 2 3 cbr 1000 ------- 1 1.0 4.0 23 34
+ 0.196 7 2 cbr 1000 ------- 2 7.0 8.0 12 37
- 0.196 7 2 cbr 1000 ------- 2 7.0 8.0 12 37
r 0.1968 2 3 cbr 1000 ------- 1 1.0 4.0 19 26
+ 0.1968 3 4 cbr 1000 ------- 1 1.0 4.0 19 26
- 0.1968 3 4 cbr 1000 ------- 1 1.0 4.0 19 26
r 0.196933 3 4 cbr 1000 ------- 1 1.0 4.0 18 24
- 0.197467 2 3 cbr 1000 ------- 2 7.0 8.0 8 29
r 0.1988 7 2 cbr 1000 ------- 2 7.0 8.0 11 35
+ 0.1988 2 3 cbr 1000 ------- 2 7.0 8.0 11 35
+ 0.2 5 2 cbr 500 ------- 3 5.0 6.0 0 38
- 0.2 5 2 cbr 500 ------- 3 5.0 6.0 0 38
+ 0.2 1 2 cbr 1000 ------- 1 1.0 4.0 25 39
- 0.2 1 2 cbr 1000 ------- 1 1.0 4.0 25 39
r 0.202133 2 3 cbr 1000 ------- 2 7.0 8.0 7 27
+ 0.202133 3 8 cbr 1000 ------- 2 7.0 8.0 7 27
- 0.202133 3 8 cbr 1000 ------- 2 7.0 8.0 7 27
r 0.202267 3 8 cbr 1000 ------- 2 7.0 8.0 6 25
- 0.2028 2 3 cbr 1000 ------- 1 1.0 4.0 21 30
r 0.2028 1 2 cbr 1000 ------- 1 1.0 4.0 24 36
+ 0.2028 2 3 cbr 1000 ------- 1 1.0 4.0 24 36
+ 0.204 7 2 cbr 1000 ------- 2 7.0 8.0 13 40
- 0.204 7 2 cbr 1000 ------- 2 7.0 8.0 13 40
+ 0.206667 5 2 cbr 500 ------- 3 5.0 6.0 1 41
- 0.206667 5 2 cbr 500 ------- 3 5.0 6.0 1 41
r 0.2068 7 2 cbr 1000 ------- 2 7.0 8.0 12 37
+ 0.2068 2 3 cbr 1000 ------- 2 7.0 8.0 12 37
r 0.207467 2 3 cbr 1000 ------- 1 1.0 4.0 20 28
+ 0.207467 3 4 cbr 1000 ------- 1 1.0 4.0 20 28
- 0.207467 3 4 cbr 1000 ------- 1 1.0 4.0 20 28
r 0.2076 3 4 cbr 1000 ------- 1 1.0 4.0 19 26
+ 0.208 1 2 cbr 1000 ------- 1 1.0 4.0 26 42
- 0.208 1 2 cbr 1000 ------- 1 1.0 4.0 26 42
- 0.208133 2 3 cbr 1000 ------- 2 7.0 8.0 9 31
r 0.2104 5 2 cbr 500 ------- 3 5.0 6.0 0 38
+ 0.2104 2 3 cbr 500 ------- 3 5.0 6.0 0 38
r 0.2108 1 2 cbr 1000 ------- 1 1.0 4.0 25 39
+ 0.2108 2 3 cbr 1000 ------- 1 1.0 4.0 25 39
+ 0.212 7 2 cbr 1000 ------- 2 7.0 8.0 14 43
- 0.212 7 2 cbr 1000 ------- 2 7.0 8.0 14 43
r 0.2128 2 3 cbr 1000 ------- 2 7.0 8.0 8 29
+ 0.2128 3 8 cbr 1000 ------- 2 7.0 8.0 8 29
- 0.2128 3 8 cbr 1000 ------- 2 7.0 8.0 8 29
r 0.212933 3 8 cbr 1000 ------- 2 7.0 8.0 7 27
+ 0.213333 5 2 cbr 500 ------- 3 5.0 6.0 2 44
- 0.213333 5 2 cbr 500 ------- 3 5.0 6.0 2 44
- 0.213467 2 3 cbr 1000 ------- 1 1.0 4.0 22 32
r 0.2148 7 2 cbr 1000 ------- 2 7.0 8.0 13 40
+ 0.2148 2 3 cbr 1000 ------- 2 7.0 8.0 13 40
+ 0.216 1 2 cbr 1000 ------- 1 1.0 4.0 27 45
- 0.216 1 2 cbr 1000 ------- 1 1.0 4.0 27 45
r 0.217067 5 2 cbr 500 ------- 3 5.0 6.0 1 41
+ 0.217067 2 3 cbr 500 ------- 3 5.0 6.0 1 41
r 0.218133 2 3 cbr 1000 ------- 1 1.0 4.0 21 30
+ 0.218133 3 4 cbr 1000 ------- 1 1.0 4.0 21 30
- 0.218133 3 4 cbr 1000 ------- 1 1.0 4.0 21 30
r 0.218267 3 4 cbr 1000 ------- 1 1.0 4.0 20 28
- 0.2188 2 3 cbr 1000 ------- 2 7.0 8.0 10 33
r 0.2188 1 2 cbr 1000 ------- 1 1.0 4.0 26 42
+ 0.2188 2 3 cbr 1000 ------- 1 1.0 4.0 26 42
+ 0.22 5 2 cbr 500 ------- 3 5.0 6.0 3 46
- 0.22 5 2 cbr 500 ------- 3 5.0 6.0 3 46
+ 0.22 7 2 cbr 1000 ------- 2 7.0 8.0 15 47
- 0.22 7 2 cbr 1000 ------- 2 7.0 8.0 15 47
r 0.2228 7 2 cbr 1000 ------- 2 7.0 8.0 14 43
+ 0.2228 2 3 cbr 1000 ------- 2 7.0 8.0 14 43
r 0.223467 2 3 cbr 1000 ------- 2 7.0 8.0 9 31
+ 0.223467 3 8 cbr 1000 ------- 2 7.0 8.0 9 31
- 0.223467 3 8 cbr 1000 ------- 2 7.0 8.0 9 31
r 0.2236 3 8 cbr 1000 ------- 2 7.0 8.0 8 29
r 0.223733 5 2 cbr 500 ------- 3 5.0 6.0 2 44
+ 0.223733 2 3 cbr 500 ------- 3 5.0 6.0 2 44
+ 0.224 1 2 cbr 1000 ------- 1 1.0 4.0 28 48
- 0.224 1 2 cbr 1000 ------- 1 1.0 4.0 28 48
- 0.224133 2 3 cbr 1000 ------- 1 1.0 4.0 23 34
+ 0.226667 5 2 cbr 500 ------- 3 5.0 6.0 4 49
- 0.226667 5 2 cbr 500 ------- 3 5.0 6.0 4 49
r 0.2268 1 2 cbr 1000 ------- 1 1.0 4.0 27 45
+ 0.2268 2 3 cbr 1000 ------- 1 1.0 4.0 27 45
+ 0.228 7 2 cbr 1000 ------- 2 7.0 8.0 16 50
- 0.228 7 2 cbr 1000 ------- 2 7.0 8.0 16 50
r 0.2288 2 3 cbr 1000 ------- 1 1.0 4.0 22 32
+ 0.2288 3 4 cbr 1000 ------- 1 1.0 4.0 22 32
- 0.2288 3 4 cbr 1000 ------- 1 1.0 4.0 22 32
r 0.228933 3 4 cbr 1000 ------- 1 1.0 4.0 21 30
- 0.229467 2 3 cbr 1000 ------- 2 7.0 8.0 11 35
r 0.2304 5 2 cbr 500 ------- 3 5.0 6.0 3 46
+ 0.2304 2 3 cbr 500 ------- 3 5.0 6.0 3 46
r 0.2308 7 2 cbr 1000 ------- 2 7.0 8.0 15 47
+ 0.2308 2 3 cbr 1000 ------- 2 7.0 8.0 15 47
+ 0.232 1 2 cbr 1000 ------- 1 1.0 4.0 29 51
- 0.232 1 2 cbr 1000 ------- 1 1.0 4.0 29 51
+ 0.233333 5 2 cbr 500 ------- 3 5.0 6.0 5 52
- 0.233333 5 2 cbr 500 ------- 3 5.0 6.0 5 52
r 0.234133 2 3 cbr 1000 ------- 2 7.0 8.0 10 33
+ 0.234133 3 8 cbr 1000 ------- 2 7.0 8.0 10 33
- 0.234133 3 8 cbr 1000 ------- 2 7.0 8.0 10 33
r 0.234267 3 8 cbr 1000 ------- 2 7.0 8.0 9 31
- 0.2348 2 3 cbr 1000 ------- 1 1.0 4.0 24 36
r 0.2348 1 2 cbr 1000 ------- 1 1.0 4.0 28 48
+ 0.2348 2 3 cbr 1000 ------- 1 1.0 4.0 28 48
+ 0.236 7 2 cbr 1000 ------- 2 7.0 8.0 17 53
- 0.236 7 2 cbr 1000 ------- 2 7.0 8.0 17 53
r 0.237067 5 2 cbr 500 ------- 3 5.0 6.0 4 49
+ 0.237067 2 3 cbr 500 ------- 3 5.0 6.0 4 49
r 0.2388 7 2 cbr 1000 ------- 2 7.0 8.0 16 50
+ 0.2388 2 3 cbr 1000 ------- 2 7.0 8.0 16 50
r 0.239467 2 3 cbr 1000 ------- 1 1.0 4.0 23 34
+ 0.239467 3 4 cbr 1000 ------- 1 1.0 4.0 23 34
- 0.239467 3 4 cbr 1000 ------- 1 1.0 4.0 23 34
r 0.2396 3 4 cbr 1000 ------- 1 1.0 4.0 22 32
+ 0.24 5 2 cbr 500 ------- 3 5.0 6.0 6 54
- 0.24 5 2 cbr 500 ------- 3 5.0 6.0 6 54
+ 0.24 1 2 cbr 1000 ------- 1 1.0 4.0 30 55
- 0.24 1 2 cbr 1000 ------- 1 1.0 4.0 30 55
- 0.240133 2 3 cbr 1000 ------- 2 7.0 8.0 12 37
r 0.2428 1 2 cbr 1000 ------- 1 1.0 4.0 29 51
+ 0.2428 2 3 cbr 1000 ------- 1 1.0 4.0 29 51
r 0.243733 5 2 cbr 500 ------- 3 5.0 6.0 5 52
+ 0.243733 2 3 cbr 500 ------- 3 5.0 6.0 5 52
+ 0.244 7 2 cbr 1000 ------- 2 7.0 8.0 18 56
- 0.244 7 2 cbr 1000 ------- 2 7.0 8.0 18 56
r 0.2448 2 3 cbr 1000 ------- 2 7.0 8.0 11 35
+ 0.2448 3 8 cbr 1000 ------- 2 7.0 8.0 11 35
- 0.2448 3 8 cbr 1000 ------- 2 7.0 8.0 11 35
r 0.244933 3 8 cbr 1000 ------- 2 7.0 8.0 10 33
- 0.245467 2 3 cbr 500 ------- 3 5.0 6.0 0 38
+ 0.246667 5 2 cbr 500 ------- 3 5.0 6.0 7 57
- 0.246667 5 2 cbr 500 ------- 3 5.0 6.0 7 57
r 0.2468 7 2 cbr 1000 ------- 2 7.0 8.0 17 53
+ 0.2468 2 3 cbr 1000 ------- 2 7.0 8.0 17 53
+ 0.248 1 2 cbr 1000 ------- 1 1.0 4.0 31 58
- 0.248 1 2 cbr 1000 ------- 1 1.0 4.0 31 58
- 0.248133 2 3 cbr 1000 ------- 1 1.0 4.0 25 39
r 0.250133 2 3 cbr 1000 ------- 1 1.0 4.0 24 36
+ 0.250133 3 4 cbr 1000 ------- 1 1.0 4.0 24 36
- 0.250133 3 4 cbr 1000 ------- 1 1.0 4.0 24 36
r 0.250267 3 4 cbr 1000 ------- 1 1.0 4.0 23 34
r 0.2504 5 2 cbr 500 ------- 3 5.0 6.0 6 54
+ 0.2504 2 3 cbr 500 ------- 3 5.0 6.0 6 54
r 0.2508 1 2 cbr 1000 ------- 1 1.0 4.0 30 55
+ 0.2508 2 3 cbr 1000 ------- 1 1.0 4.0 30 55
+ 0.252 7 2 cbr 1000 ------- 2 7.0 8.0 19 59
- 0.252 7 2 cbr 1000 ------- 2 7.0 8.0 19 59
+ 0.253333 5 2 cbr 500 ------- 3 5.0 6.0 8 60
- 0.253333 5 2 cbr 500 ------- 3 5.0 6.0 8 60
- 0.253467 2 3 cbr 1000 ------- 2 7.0 8.0 13 40
r 0.2548 7 2 cbr 1000 ------- 2 7.0 8.0 18 56
+ 0.2548 2 3 cbr 1000 ------- 2 7.0 8.0 18 56
r 0.255467 2 3 cbr 1000 ------- 2 7.0 8.0 12 37
+ 0.255467 3 8 cbr 1000 ------- 2 7.0 8.0 12 37
- 0.255467 3 8 cbr 1000 ------- 2 7.0 8.0 12 37
r 0.2556 3 8 cbr 1000 ------- 2 7.0 8.0 11 35
+ 0.256 1 2 cbr 1000 ------- 1 1.0 4.0 32 61
- 0.256 1 2 cbr 1000 ------- 1 1.0 4.0 32 61
r 0.257067 5 2 cbr 500 ------- 3 5.0 6.0 7 57
+ 0.257067 2 3 cbr 500 ------- 3 5.0 6.0 7 57
r 0.258133 2 3 cbr 500 ------- 3 5.0 6.0 0 38
+ 0.258133 3 6 cbr 500 ------- 3 5.0 6.0 0 38
- 0.258133 3 6 cbr 500 ------- 3 5.0 6.0 0 38
- 0.2588 2 3 cbr 500 ------- 3 5.0 6.0 1 41
r 0.2588 1 2 cbr 1000 ------- 1 1.0 4.0 31 58
+ 0.2588 2 3 cbr 1000 ------- 1 1.0 4.0 31 58
+ 0.26 5 2 cbr 500 ------- 3 5.0 6.0 9 62
- 0.26 5 2 cbr 500 ------- 3 5.0 6.0 9 62
+ 0.26 7 2 cbr 1000 ------- 2 7.0 8.0 20 63
- 0.26 7 2 cbr 1000 ------- 2 7.0 8.0 20 63
r 0.260933 3 4 cbr 1000 ------- 1 1.0 4.0 24 36
- 0.261467 2 3 cbr 1000 ------- 1 1.0 4.0 26 42
r 0.2628 7 2 cbr 1000 ------- 2 7.0 8.0 19 59
+ 0.2628 2 3 cbr 1000 ------- 2 7.0 8.0 19 59
r 0.263467 2 3 cbr 1000 ------- 1 1.0 4.0 25 39
+ 0.263467 3 4 cbr 1000 ------- 1 1.0 4.0 25 39
- 0.263467 3 4 cbr 1000 ------- 1 1.0 4.0 25 39
r 0.263733 5 2 cbr 500 ------- 3 5.0 6.0 8 60
+ 0.263733 2 3 cbr 500 ------- 3 5.0 6.0 8 60
+ 0.264 1 2 cbr 1000 ------- 1 1.0 4.0 33 64
- 0.264 1 2 cbr 1000 ------- 1 1.0 4.0 33 64
r 0.266267 3 8 cbr 1000 ------- 2 7.0 8.0 12 37
+ 0.266667 5 2 cbr 500 ------- 3 5.0 6.0 10 65
- 0.266667 5 2 cbr 500 ------- 3 5.0 6.0 10 65
- 0.2668 2 3 cbr 1000 ------- 2 7.0 8.0 14 43
r 0.2668 1 2 cbr 1000 ------- 1 1.0 4.0 32 61
+ 0.2668 2 3 cbr 1000 ------- 1 1.0 4.0 32 61
+ 0.268 7 2 cbr 1000 ------- 2 7.0 8.0 21 66
- 0.268 7 2 cbr 1000 ------- 2 7.0 8.0 21 66
r 0.268533 3 6 cbr 500 ------- 3 5.0 6.0 0 38
r 0.2688 2 3 cbr 1000 ------- 2 7.0 8.0 13 40
+ 0.2688 3 8 cbr 1000 ------- 2 7.0 8.0 13 40
- 0.2688 3 8 cbr 1000 ------- 2 7.0 8.0 13 40
r 0.2704 5 2 cbr 500 ------- 3 5.0 6.0 9 62
+ 0.2704 2 3 cbr 500 ------- 3 5.0 6.0 9 62
r 0.2708 7 2 cbr 1000 ------- 2 7.0 8.0 20 63
+ 0.2708 2 3 cbr 1000 ------- 2 7.0 8.0 20 63
r 0.271467 2 3 cbr 500 ------- 3 5.0 6.0 1 41
+ 0.271467 3 6 cbr 500 ------- 3 5.0 6.0 1 41
- 0.271467 3 6 cbr 500 ------- 3 5.0 6.0 1 41
+ 0.272 1 2 cbr 1000 ------- 1 1.0 4.0 34 67
- 0.272 1 2 cbr 1000 ------- 1 1.0 4.0 34 67
- 0.272133 2 3 cbr 500 ------- 3 5.0 6.0 2 44
+ 0.273333 5 2 cbr 500 ------- 3 5.0 6.0 11 68
- 0.273333 5 2 cbr 500 ------- 3 5.0 6.0 11 68
r 0.274267 3 4 cbr 1000 ------- 1 1.0 4.0 25 39
- 0.2748 2 3 cbr 1000 ------- 1 1.0 4.0 27 45
r 0.2748 1 2 cbr 1000 ------- 1 1.0 4.0 33 64
+ 0.2748 2 3 cbr 1000 ------- 1 1.0 4.0 33 64
+ 0.276 7 2 cbr 1000 ------- 2 7.0 8.0 22 69
- 0.276 7 2 cbr 1000 ------- 2 7.0 8.0 22 69
r 0.2768 2 3 cbr 1000 ------- 1 1.0 4.0 26 42
+ 0.2768 3 4 cbr 1000 ------- 1 1.0 4.0 26 42
- 0.2768 3 4 cbr 1000 ------- 1 1.0 4.0 26 42
r 0.277067 5 2 cbr 500 ------- 3 5.0 6.0 10 65
+ 0.277067 2 3 cbr 500 ------- 3 5.0 6.0 10 65
r 0.2788 7 2 cbr 1000 ------- 2 7.0 8.0 21 66
+ 0.2788 2 3 cbr 1000 ------- 2 7.0 8.0 21 66
r 0.2796 3 8 cbr 1000 ------- 2 7.0 8.0 13 40
+ 0.28 5 2 cbr 500 ------- 3 5.0 6.0 12 70
- 0.28 5 2 cbr 500 ------- 3 5.0 6.0 12 70
+ 0.28 1 2 cbr 1000 ------- 1 1.0 4.0 35 71
- 0.28 1 2 cbr 1000 ------- 1 1.0 4.0 35 71
- 0.280133 2 3 cbr 500 ------- 3 5.0 6.0 3 46
r 0.281867 3 6 cbr 500 ------- 3 5.0 6.0 1 41
r 0.282133 2 3 cbr 1000 ------- 2 7.0 8.0 14 43
+ 0.282133 3 8 cbr 1000 ------- 2 7.0 8.0 14 43
- 0.282133 3 8 cbr 1000 ------- 2 7.0 8.0 14 43
- 0.2828 2 3 cbr 1000 ------- 2 7.0 8.0 15 47
r 0.2828 1 2 cbr 1000 ------- 1 1.0 4.0 34 67
+ 0.2828 2 3 cbr 1000 ------- 1 1.0 4.0 34 67
r 0.283733 5 2 cbr 500 ------- 3 5.0 6.0 11 68
+ 0.283733 2 3 cbr 500 ------- 3 5.0 6.0 11 68
+ 0.284 7 2 cbr 1000 ------- 2 7.0 8.0 23 72
- 0.284 7 2 cbr 1000 ------- 2 7.0 8.0 23 72
r 0.2848 2 3 cbr 500 ------- 3 5.0 6.0 2 44
+ 0.2848 3 6 cbr 500 ------- 3 5.0 6.0 2 44
- 0.2848 3 6 cbr 500 ------- 3 5.0 6.0 2 44
+ 0.286667 5 2 cbr 500 ------- 3 5.0 6.0 13 73
- 0.286667 5 2 cbr 500 ------- 3 5.0 6.0 13 73
r 0.2868 7 2 cbr 1000 ------- 2 7.0 8.0 22 69
+ 0.2868 2 3 cbr 1000 ------- 2 7.0 8.0 22 69
r 0.2876 3 4 cbr 1000 ------- 1 1.0 4.0 26 42
+ 0.288 1 2 cbr 1000 ------- 1 1.0 4.0 36 74
- 0.288 1 2 cbr 1000 ------- 1 1.0 4.0 36 74
- 0.288133 2 3 cbr 1000 ------- 1 1.0 4.0 28 48
r 0.290133 2 3 cbr 1000 ------- 1 1.0 4.0 27 45
+ 0.290133 3 4 cbr 1000 ------- 1 1.0 4.0 27 45
- 0.290133 3 4 cbr 1000 ------- 1 1.0 4.0 27 45
r 0.2904 5 2 cbr 500 ------- 3 5.0 6.0 12 70
+ 0.2904 2 3 cbr 500 ------- 3 5.0 6.0 12 70
r 0.2908 1 2 cbr 1000 ------- 1 1.0 4.0 35 71
+ 0.2908 2 3 cbr 1000 ------- 1 1.0 4.0 35 71
+ 0.292 7 2 cbr 1000 ------- 2 7.0 8.0 24 75
- 0.292 7 2 cbr 1000 ------- 2 7.0 8.0 24 75
r 0.2928 2 3 cbr 500 ------- 3 5.0 6.0 3 46
+ 0.2928 3 6 cbr 500 ------- 3 5.0 6.0 3 46
- 0.2928 3 6 cbr 500 ------- 3 5.0 6.0 3 46
r 0.292933 3 8 cbr 1000 ------- 2 7.0 8.0 14 43
+ 0.293333 5 2 cbr 500 ------- 3 5.0 6.0 14 76
- 0.293333 5 2 cbr 500 ------- 3 5.0 6.0 14 76
- 0.293467 2 3 cbr 500 ------- 3 5.0 6.0 4 49
r 0.2948 7 2 cbr 1000 ------- 2 7.0 8.0 23 72
+ 0.2948 2 3 cbr 1000 ------- 2 7.0 8.0 23 72
r 0.2952 3 6 cbr 500 ------- 3 5.0 6.0 2 44
+ 0.296 1 2 cbr 1000 ------- 1 1.0 4.0 37 77
- 0.296 1 2 cbr 1000 ------- 1 1.0 4.0 37 77
- 0.296133 2 3 cbr 1000 ------- 2 7.0 8.0 16 50
r 0.297067 5 2 cbr 500 ------- 3 5.0 6.0 13 73
+ 0.297067 2 3 cbr 500 ------- 3 5.0 6.0 13 73
r 0.298133 2 3 cbr 1000 ------- 2 7.0 8.0 15 47
+ 0.298133 3 8 cbr 1000 ------- 2 7.0 8.0 15 47
- 0.298133 3 8 cbr 1000 ------- 2 7.0 8.0 15 47
r 0.2988 1 2 cbr 1000 ------- 1 1.0 4.0 36 74
+ 0.2988 2 3 cbr 1000 ------- 1 1.0 4.0 36 74
+ 0.3 5 2 cbr 500 ------- 3 5.0 6.0 15 78
- 0.3 5 2 cbr 500 ------- 3 5.0 6.0 15 78
+ 0.3 7 2 cbr 1000 ------- 2 7.0 8.0 25 79
- 0.3 7 2 cbr 1000 ------- 2 7.0 8.0 25 79
r 0.300933 3 4 cbr 1000 ------- 1 1.0 4.0 27 45
- 0.301467 2 3 cbr 1000 ------- 1 1.0 4.0 29 51
r 0.3028 7 2 cbr 1000 ------- 2 7.0 8.0 24 75
+ 0.3028 2 3 cbr 1000 ------- 2 7.0 8.0 24 75
r 0.3032 3 6 cbr 500 ------- 3 5.0 6.0 3 46
r 0.303467 2 3 cbr 1000 ------- 1 1.0 4.0 28 48
+ 0.303467 3 4 cbr 1000 ------- 1 1.0 4.0 28 48
- 0.303467 3 4 cbr 1000 ------- 1 1.0 4.0 28 48
r 0.303733 5 2 cbr 500 ------- 3 5.0 6.0 14 76
+ 0.303733 2 3 cbr 500 ------- 3 5.0 6.0 14 76
+ 0.304 1 2 cbr 1000 ------- 1 1.0 4.0 38 80
- 0.304 1 2 cbr 1000 ------- 1 1.0 4.0 38 80
r 0.306133 2 3 cbr 500 ------- 3 5.0 6.0 4 49
+ 0.306133 3 6 cbr 500 ------- 3 5.0 6.0 4 49
- 0.306133 3 6 cbr 500 ------- 3 5.0 6.0 4 49
+ 0.306667 5 2 cbr 500 ------- 3 5.0 6.0 16 81
- 0.306667 5 2 cbr 500 ------- 3 5.0 6.0 16 81
- 0.3068 2 3 cbr 500 ------- 3 5.0 6.0 5 52
r 0.3068 1 2 cbr 1000 ------- 1 1.0 4.0 37 77
+ 0.3068 2 3 cbr 1000 ------- 1 1.0 4.0 37 77
+ 0.308 7 2 cbr 1000 ------- 2 7.0 8.0 26 82
- 0.308 7 2 cbr 1000 ------- 2 7.0 8.0 26 82
r 0.308933 3 8 cbr 1000 ------- 2 7.0 8.0 15 47
- 0.309467 2 3 cbr 1000 ------- 2 7.0 8.0 17 53
r 0.3104 5 2 cbr 500 ------- 3 5.0 6.0 15 78
+ 0.3104 2 3 cbr 500 ------- 3 5.0 6.0 15 78
r 0.3108 7 2 cbr 1000 ------- 2 7.0 8.0 25 79
+ 0.3108 2 3 cbr 1000 ------- 2 7.0 8.0 25 79
r 0.311467 2 3 cbr 1000 ------- 2 7.0 8.0 16 50
+ 0.311467 3 8 cbr 1000 ------- 2 7.0 8.0 16 50
- 0.311467 3 8 cbr 1000 ------- 2 7.0 8.0 16 50
+ 0.312 1 2 cbr 1000 ------- 1 1.0 4.0 39 83
- 0.312 1 2 cbr 1000 ------- 1 1.0 4.0 39 83
+ 0.313333 5 2 cbr 500 ------- 3 5.0 6.0 17 84
- 0.313333 5 2 cbr 500 ------- 3 5.0 6.0 17 84
r 0.314267 3 4 cbr 1000 ------- 1 1.0 4.0 28 48
- 0.3148 2 3 cbr 500 ------- 3 5.0 6.0 6 54
r 0.3148 1 2 cbr 1000 ------- 1 1.0 4.0 38 80
+ 0.3148 2 3 cbr 1000 ------- 1 1.0 4.0 38 80
+ 0.316 7 2 cbr 1000 ------- 2 7.0 8.0 27 85
- 0.316 7 2 cbr 1000 ------- 2 7.0 8.0 27 85
r 0.316533 3 6 cbr 500 ------- 3 5.0 6.0 4 49
r 0.3168 2 3 cbr 1000 ------- 1 1.0 4.0 29 51
+ 0.3168 3 4 cbr 1000 ------- 1 1.0 4.0 29 51
- 0.3168 3 4 cbr 1000 ------- 1 1.0 4.0 29 51
r 0.317067 5 2 cbr 500 ------- 3 5.0 6.0 16 81
+ 0.317067 2 3 cbr 500 ------- 3 5.0 6.0 16 81
- 0.317467 2 3 cbr 1000 ------- 1 1.0 4.0 30 55
r 0.3188 7 2 cbr 1000 ------- 2 7.0 8.0 26 82
+ 0.3188 2 3 cbr 1000 ------- 2 7.0 8.0 26 82
r 0.319467 2 3 cbr 500 ------- 3 5.0 6.0 5 52
+ 0.319467 3 6 cbr 500 ------- 3 5.0 6.0 5 52
- 0.319467 3 6 cbr 500 ------- 3 5.0 6.0 5 52
+ 0.32 5 2 cbr 500 ------- 3 5.0 6.0 18 86
- 0.32 5 2 cbr 500 ------- 3 5.0 6.0 18 86
+ 0.32 1 2 cbr 1000 ------- 1 1.0 4.0 40 87
- 0.32 1 2 cbr 1000 ------- 1 1.0 4.0 40 87
r 0.322267 3 8 cbr 1000 ------- 2 7.0 8.0 16 50
- 0.3228 2 3 cbr 1000 ------- 2 7.0 8.0 18 56
r 0.3228 1 2 cbr 1000 ------- 1 1.0 4.0 39 83
+ 0.3228 2 3 cbr 1000 ------- 1 1.0 4.0 39 83
r 0.323733 5 2 cbr 500 ------- 3 5.0 6.0 17 84
+ 0.323733 2 3 cbr 500 ------- 3 5.0 6.0 17 84
+ 0.324 7 2 cbr 1000 ------- 2 7.0 8.0 28 88
- 0.324 7 2 cbr 1000 ------- 2 7.0 8.0 28 88
r 0.3248 2 3 cbr 1000 ------- 2 7.0 8.0 17 53
+ 0.3248 3 8 cbr 1000 ------- 2 7.0 8.0 17 53
- 0.3248 3 8 cbr 1000 ------- 2 7.0 8.0 17 53
+ 0.326667 5 2 cbr 500 ------- 3 5.0 6.0 19 89
- 0.326667 5 2 cbr 500 ------- 3 5.0 6.0 19 89
r 0.3268 7 2 cbr 1000 ------- 2 7.0 8.0 27 85
+ 0.3268 2 3 cbr 1000 ------- 2 7.0 8.0 27 85
r 0.327467 2 3 cbr 500 ------- 3 5.0 6.0 6 54
+ 0.327467 3 6 cbr 500 ------- 3 5.0 6.0 6 54
- 0.327467 3 6 cbr 500 ------- 3 5.0 6.0 6 54
r 0.3276 3 4 cbr 1000 ------- 1 1.0 4.0 29 51
+ 0.328 1 2 cbr 1000 ------- 1 1.0 4.0 41 90
- 0.328 1 2 cbr 1000 ------- 1 1.0 4.0 41 90
- 0.328133 2 3 cbr 500 ------- 3 5.0 6.0 7 57
r 0.329867 3 6 cbr 500 ------- 3 5.0 6.0 5 52
r 0.3304 5 2 cbr 500 ------- 3 5.0 6.0 18 86
+ 0.3304 2 3 cbr 500 ------- 3 5.0 6.0 18 86
- 0.3308 2 3 cbr 1000 ------- 1 1.0 4.0 31 58
r 0.3308 1 2 cbr 1000 ------- 1 1.0 4.0 40 87
+ 0.3308 2 3 cbr 1000 ------- 1 1.0 4.0 40 87
+ 0.332 7 2 cbr 1000 ------- 2 7.0 8.0 29 91
- 0.332 7 2 cbr 1000 ------- 2 7.0 8.0 29 91
r 0.3328 2 3 cbr 1000 ------- 1 1.0 4.0 30 55
+ 0.3328 3 4 cbr 1000 ------- 1 1.0 4.0 30 55
- 0.3328 3 4 cbr 1000 ------- 1 1.0 4.0 30 55
+ 0.333333 5 2 cbr 500 ------- 3 5.0 6.0 20 92
- 0.333333 5 2 cbr 500 ------- 3 5.0 6.0 20 92
r 0.3348 7 2 cbr 1000 ------- 2 7.0 8.0 28 88
+ 0.3348 2 3 cbr 1000 ------- 2 7.0 8.0 28 88
r 0.3356 3 8 cbr 1000 ------- 2 7.0 8.0 17 53
+ 0.336 1 2 cbr 1000 ------- 1 1.0 4.0 42 93
- 0.336 1 2 cbr 1000 ------- 1 1.0 4.0 42 93
- 0.336133 2 3 cbr 1000 ------- 2 7.0 8.0 19 59
r 0.337067 5 2 cbr 500 ------- 3 5.0 6.0 19 89
+ 0.337067 2 3 cbr 500 ------- 3 5.0 6.0 19 89
r 0.337867 3 6 cbr 500 ------- 3 5.0 6.0 6 54
r 0.338133 2 3 cbr 1000 ------- 2 7.0 8.0 18 56
+ 0.338133 3 8 cbr 1000 ------- 2 7.0 8.0 18 56
- 0.338133 3 8 cbr 1000 ------- 2 7.0 8.0 18 56
r 0.3388 1 2 cbr 1000 ------- 1 1.0 4.0 41 90
+ 0.3388 2 3 cbr 1000 ------- 1 1.0 4.0 41 90